s 0.000100840 _0_ MAC  --- 0 DLMAP 24 [0 0 ffff0000 0] ------- [0:0 0:0 0 0] 
s 0.000100840 _0_ MAC  --- 0 ULMAP 28 [0 0 ffff0000 0] ------- [0:0 0:0 0 0] 
s 0.000100840 _0_ MAC  --- 0 DCD 116 [0 0 ffff0000 0] ------- [0:0 0:0 0 0] 
s 0.000100840 _0_ MAC  --- 0 UCD 180 [0 0 ffff0000 0] ------- [0:0 0:0 0 0] 
r 0.000101173 _7_ MAC  --- 0 DLMAP 24 [0 0 ffff0000 0] ------- [0:0 0:0 0 0] 
r 0.000101173 _1_ MAC  --- 0 DLMAP 24 [0 0 ffff0000 0] ------- [0:0 0:0 0 0] 
r 0.000101173 _5_ MAC  --- 0 DLMAP 24 [0 0 ffff0000 0] ------- [0:0 0:0 0 0] 
r 0.000101173 _3_ MAC  --- 0 DLMAP 24 [0 0 ffff0000 0] ------- [0:0 0:0 0 0] 
r 0.000101173 _7_ MAC  --- 0 ULMAP 28 [0 0 ffff0000 0] ------- [0:0 0:0 0 0] 
r 0.000101173 _1_ MAC  --- 0 ULMAP 28 [0 0 ffff0000 0] ------- [0:0 0:0 0 0] 
r 0.000101173 _5_ MAC  --- 0 ULMAP 28 [0 0 ffff0000 0] ------- [0:0 0:0 0 0] 
r 0.000101173 _3_ MAC  --- 0 ULMAP 28 [0 0 ffff0000 0] ------- [0:0 0:0 0 0] 
r 0.000101173 _7_ MAC  --- 0 DCD 116 [0 0 ffff0000 0] ------- [0:0 0:0 0 0] 
r 0.000101173 _1_ MAC  --- 0 DCD 116 [0 0 ffff0000 0] ------- [0:0 0:0 0 0] 
r 0.000101173 _5_ MAC  --- 0 DCD 116 [0 0 ffff0000 0] ------- [0:0 0:0 0 0] 
r 0.000101173 _3_ MAC  --- 0 DCD 116 [0 0 ffff0000 0] ------- [0:0 0:0 0 0] 
r 0.000101173 _7_ MAC  --- 0 UCD 180 [0 0 ffff0000 0] ------- [0:0 0:0 0 0] 
r 0.000101173 _1_ MAC  --- 0 UCD 180 [0 0 ffff0000 0] ------- [0:0 0:0 0 0] 
r 0.000101173 _5_ MAC  --- 0 UCD 180 [0 0 ffff0000 0] ------- [0:0 0:0 0 0] 
r 0.000101173 _3_ MAC  --- 0 UCD 180 [0 0 ffff0000 0] ------- [0:0 0:0 0 0] 
r 0.000101311 _8_ MAC  --- 0 DLMAP 24 [0 0 ffff0000 0] ------- [0:0 0:0 0 0] 
r 0.000101311 _6_ MAC  --- 0 DLMAP 24 [0 0 ffff0000 0] ------- [0:0 0:0 0 0] 
r 0.000101311 _2_ MAC  --- 0 DLMAP 24 [0 0 ffff0000 0] ------- [0:0 0:0 0 0] 
r 0.000101311 _4_ MAC  --- 0 DLMAP 24 [0 0 ffff0000 0] ------- [0:0 0:0 0 0] 
r 0.000101311 _8_ MAC  --- 0 ULMAP 28 [0 0 ffff0000 0] ------- [0:0 0:0 0 0] 
r 0.000101311 _6_ MAC  --- 0 ULMAP 28 [0 0 ffff0000 0] ------- [0:0 0:0 0 0] 
r 0.000101311 _2_ MAC  --- 0 ULMAP 28 [0 0 ffff0000 0] ------- [0:0 0:0 0 0] 
r 0.000101311 _4_ MAC  --- 0 ULMAP 28 [0 0 ffff0000 0] ------- [0:0 0:0 0 0] 
r 0.000101311 _8_ MAC  --- 0 DCD 116 [0 0 ffff0000 0] ------- [0:0 0:0 0 0] 
r 0.000101311 _6_ MAC  --- 0 DCD 116 [0 0 ffff0000 0] ------- [0:0 0:0 0 0] 
r 0.000101311 _2_ MAC  --- 0 DCD 116 [0 0 ffff0000 0] ------- [0:0 0:0 0 0] 
r 0.000101311 _4_ MAC  --- 0 DCD 116 [0 0 ffff0000 0] ------- [0:0 0:0 0 0] 
r 0.000101311 _8_ MAC  --- 0 UCD 180 [0 0 ffff0000 0] ------- [0:0 0:0 0 0] 
r 0.000101311 _6_ MAC  --- 0 UCD 180 [0 0 ffff0000 0] ------- [0:0 0:0 0 0] 
r 0.000101311 _2_ MAC  --- 0 UCD 180 [0 0 ffff0000 0] ------- [0:0 0:0 0 0] 
r 0.000101311 _4_ MAC  --- 0 UCD 180 [0 0 ffff0000 0] ------- [0:0 0:0 0 0] 
s 0.003861330 _7_ MAC  --- 0 RNGREQ 20 [0 7000000 0 0] ------- [0:0 0:0 0 0] 
s 0.003861330 _1_ MAC  --- 0 RNGREQ 20 [0 1000000 0 0] ------- [0:0 0:0 0 0] 
s 0.003861330 _5_ MAC  --- 0 RNGREQ 20 [0 5000000 0 0] ------- [0:0 0:0 0 0] 
s 0.003861330 _3_ MAC  --- 0 RNGREQ 20 [0 3000000 0 0] ------- [0:0 0:0 0 0] 
s 0.003861330 _8_ MAC  --- 0 RNGREQ 20 [0 8000000 0 0] ------- [0:0 0:0 0 0] 
s 0.003861330 _6_ MAC  --- 0 RNGREQ 20 [0 6000000 0 0] ------- [0:0 0:0 0 0] 
s 0.003861330 _2_ MAC  --- 0 RNGREQ 20 [0 2000000 0 0] ------- [0:0 0:0 0 0] 
s 0.003861330 _4_ MAC  --- 0 RNGREQ 20 [0 4000000 0 0] ------- [0:0 0:0 0 0] 
r 0.003861663 _0_ MAC  --- 0 RNGREQ 20 [0 7000000 0 0] ------- [0:0 0:0 0 0] 
s 0.003861663 _0_ MAC  --- 0 RNGRSP 48 [0 0 0 0] ------- [0:0 0:0 0 0] 
r 0.003861663 _0_ MAC  --- 0 RNGREQ 20 [0 1000000 0 0] ------- [0:0 0:0 0 0] 
s 0.003861663 _0_ MAC  --- 0 RNGRSP 48 [0 0 0 0] ------- [0:0 0:0 0 0] 
r 0.003861663 _0_ MAC  --- 0 RNGREQ 20 [0 5000000 0 0] ------- [0:0 0:0 0 0] 
s 0.003861663 _0_ MAC  --- 0 RNGRSP 48 [0 0 0 0] ------- [0:0 0:0 0 0] 
r 0.003861663 _0_ MAC  --- 0 RNGREQ 20 [0 3000000 0 0] ------- [0:0 0:0 0 0] 
s 0.003861663 _0_ MAC  --- 0 RNGRSP 48 [0 0 0 0] ------- [0:0 0:0 0 0] 
r 0.003861801 _0_ MAC  --- 0 RNGREQ 20 [0 8000000 0 0] ------- [0:0 0:0 0 0] 
s 0.003861801 _0_ MAC  --- 0 RNGRSP 48 [0 0 0 0] ------- [0:0 0:0 0 0] 
r 0.003861801 _0_ MAC  --- 0 RNGREQ 20 [0 6000000 0 0] ------- [0:0 0:0 0 0] 
s 0.003861801 _0_ MAC  --- 0 RNGRSP 48 [0 0 0 0] ------- [0:0 0:0 0 0] 
r 0.003861801 _0_ MAC  --- 0 RNGREQ 20 [0 2000000 0 0] ------- [0:0 0:0 0 0] 
s 0.003861801 _0_ MAC  --- 0 RNGRSP 48 [0 0 0 0] ------- [0:0 0:0 0 0] 
r 0.003861801 _0_ MAC  --- 0 RNGREQ 20 [0 4000000 0 0] ------- [0:0 0:0 0 0] 
s 0.003861801 _0_ MAC  --- 0 RNGRSP 48 [0 0 0 0] ------- [0:0 0:0 0 0] 
r 0.003861997 _7_ MAC  --- 0 RNGRSP 48 [0 0 0 0] ------- [0:0 0:0 0 0] 
r 0.003861997 _1_ MAC  --- 0 RNGRSP 48 [0 0 0 0] ------- [0:0 0:0 0 0] 
r 0.003861997 _5_ MAC  --- 0 RNGRSP 48 [0 0 0 0] ------- [0:0 0:0 0 0] 
r 0.003861997 _3_ MAC  --- 0 RNGRSP 48 [0 0 0 0] ------- [0:0 0:0 0 0] 
r 0.003862273 _8_ MAC  --- 0 RNGRSP 48 [0 0 0 0] ------- [0:0 0:0 0 0] 
r 0.003862273 _6_ MAC  --- 0 RNGRSP 48 [0 0 0 0] ------- [0:0 0:0 0 0] 
r 0.003862273 _2_ MAC  --- 0 RNGRSP 48 [0 0 0 0] ------- [0:0 0:0 0 0] 
r 0.003862273 _4_ MAC  --- 0 RNGRSP 48 [0 0 0 0] ------- [0:0 0:0 0 0] 
s 0.005100820 _0_ MAC  --- 0 DLMAP 32 [0 0 ffff0000 0] ------- [0:0 0:0 0 0] 
s 0.005100820 _0_ MAC  --- 0 ULMAP 44 [0 0 ffff0000 0] ------- [0:0 0:0 0 0] 
r 0.005101153 _7_ MAC  --- 0 DLMAP 32 [0 0 ffff0000 0] ------- [0:0 0:0 0 0] 
r 0.005101153 _1_ MAC  --- 0 DLMAP 32 [0 0 ffff0000 0] ------- [0:0 0:0 0 0] 
r 0.005101153 _5_ MAC  --- 0 DLMAP 32 [0 0 ffff0000 0] ------- [0:0 0:0 0 0] 
r 0.005101153 _3_ MAC  --- 0 DLMAP 32 [0 0 ffff0000 0] ------- [0:0 0:0 0 0] 
r 0.005101153 _7_ MAC  --- 0 ULMAP 44 [0 0 ffff0000 0] ------- [0:0 0:0 0 0] 
r 0.005101153 _1_ MAC  --- 0 ULMAP 44 [0 0 ffff0000 0] ------- [0:0 0:0 0 0] 
r 0.005101153 _5_ MAC  --- 0 ULMAP 44 [0 0 ffff0000 0] ------- [0:0 0:0 0 0] 
r 0.005101153 _3_ MAC  --- 0 ULMAP 44 [0 0 ffff0000 0] ------- [0:0 0:0 0 0] 
r 0.005101291 _8_ MAC  --- 0 DLMAP 32 [0 0 ffff0000 0] ------- [0:0 0:0 0 0] 
r 0.005101291 _6_ MAC  --- 0 DLMAP 32 [0 0 ffff0000 0] ------- [0:0 0:0 0 0] 
r 0.005101291 _2_ MAC  --- 0 DLMAP 32 [0 0 ffff0000 0] ------- [0:0 0:0 0 0] 
r 0.005101291 _4_ MAC  --- 0 DLMAP 32 [0 0 ffff0000 0] ------- [0:0 0:0 0 0] 
r 0.005101291 _8_ MAC  --- 0 ULMAP 44 [0 0 ffff0000 0] ------- [0:0 0:0 0 0] 
r 0.005101291 _6_ MAC  --- 0 ULMAP 44 [0 0 ffff0000 0] ------- [0:0 0:0 0 0] 
r 0.005101291 _2_ MAC  --- 0 ULMAP 44 [0 0 ffff0000 0] ------- [0:0 0:0 0 0] 
r 0.005101291 _4_ MAC  --- 0 ULMAP 44 [0 0 ffff0000 0] ------- [0:0 0:0 0 0] 
s 0.007104831 _0_ MAC  --- 16 message 32 [0 0 ffff0008 0] ------- [0:255 -1:255 32 0] 
r 0.007105164 _7_ MAC  --- 16 message 32 [0 0 ffff0008 0] ------- [0:255 -1:255 32 0] 
r 0.007105164 _1_ MAC  --- 16 message 32 [0 0 ffff0008 0] ------- [0:255 -1:255 32 0] 
r 0.007105164 _5_ MAC  --- 16 message 32 [0 0 ffff0008 0] ------- [0:255 -1:255 32 0] 
r 0.007105164 _3_ MAC  --- 16 message 32 [0 0 ffff0008 0] ------- [0:255 -1:255 32 0] 
r 0.007105302 _8_ MAC  --- 16 message 32 [0 0 ffff0008 0] ------- [0:255 -1:255 32 0] 
r 0.007105302 _6_ MAC  --- 16 message 32 [0 0 ffff0008 0] ------- [0:255 -1:255 32 0] 
r 0.007105302 _2_ MAC  --- 16 message 32 [0 0 ffff0008 0] ------- [0:255 -1:255 32 0] 
r 0.007105302 _4_ MAC  --- 16 message 32 [0 0 ffff0008 0] ------- [0:255 -1:255 32 0] 
D 0.007130164 _3_ IFQ  ARP 2 rtPS 240 [0 3000000 8 0] ------- [3:0 0:2 32 0] 
D 0.007130164 _3_ IFQ  ARP 17 rtPS 751 [0 3000000 8 0] ------- [3:0 0:2 32 0] 
D 0.007130302 _6_ IFQ  ARP 5 rtPS 240 [0 6000000 8 0] ------- [6:0 0:5 32 0] 
D 0.007130302 _6_ IFQ  ARP 18 rtPS 487 [0 6000000 8 0] ------- [6:0 0:5 32 0] 
s 0.007135164 _7_ MAC  --- 0 ARP 28 [0 7000000 ffff0608 0] ------- [REQUEST 7/7 0/0]
s 0.007135164 _1_ MAC  --- 0 ARP 28 [0 1000000 ffff0608 0] ------- [REQUEST 1/1 0/0]
s 0.007135164 _5_ MAC  --- 0 ARP 28 [0 5000000 ffff0608 0] ------- [REQUEST 5/5 0/0]
s 0.007135164 _3_ MAC  --- 0 ARP 28 [0 3000000 ffff0608 0] ------- [REQUEST 3/3 0/0]
s 0.007135302 _8_ MAC  --- 0 ARP 28 [0 8000000 ffff0608 0] ------- [REQUEST 8/8 0/0]
s 0.007135302 _6_ MAC  --- 0 ARP 28 [0 6000000 ffff0608 0] ------- [REQUEST 6/6 0/0]
s 0.007135302 _2_ MAC  --- 0 ARP 28 [0 2000000 ffff0608 0] ------- [REQUEST 2/2 0/0]
s 0.007135302 _4_ MAC  --- 0 ARP 28 [0 4000000 ffff0608 0] ------- [REQUEST 4/4 0/0]
r 0.007135498 _6_ MAC  --- 0 ARP 28 [0 7000000 ffff0608 0] ------- [REQUEST 7/7 0/0]
r 0.007135498 _8_ MAC  --- 0 ARP 28 [0 7000000 ffff0608 0] ------- [REQUEST 7/7 0/0]
r 0.007135498 _0_ MAC  --- 0 ARP 28 [0 7000000 ffff0608 0] ------- [REQUEST 7/7 0/0]
r 0.007135498 _0_ MAC  --- 0 ARP 28 [0 1000000 ffff0608 0] ------- [REQUEST 1/1 0/0]
r 0.007135498 _8_ MAC  --- 0 ARP 28 [0 1000000 ffff0608 0] ------- [REQUEST 1/1 0/0]
r 0.007135498 _2_ MAC  --- 0 ARP 28 [0 1000000 ffff0608 0] ------- [REQUEST 1/1 0/0]
r 0.007135498 _0_ MAC  --- 0 ARP 28 [0 5000000 ffff0608 0] ------- [REQUEST 5/5 0/0]
r 0.007135498 _6_ MAC  --- 0 ARP 28 [0 5000000 ffff0608 0] ------- [REQUEST 5/5 0/0]
r 0.007135498 _4_ MAC  --- 0 ARP 28 [0 5000000 ffff0608 0] ------- [REQUEST 5/5 0/0]
r 0.007135498 _2_ MAC  --- 0 ARP 28 [0 3000000 ffff0608 0] ------- [REQUEST 3/3 0/0]
r 0.007135498 _0_ MAC  --- 0 ARP 28 [0 3000000 ffff0608 0] ------- [REQUEST 3/3 0/0]
r 0.007135498 _4_ MAC  --- 0 ARP 28 [0 3000000 ffff0608 0] ------- [REQUEST 3/3 0/0]
r 0.007135636 _1_ MAC  --- 0 ARP 28 [0 7000000 ffff0608 0] ------- [REQUEST 7/7 0/0]
r 0.007135636 _5_ MAC  --- 0 ARP 28 [0 7000000 ffff0608 0] ------- [REQUEST 7/7 0/0]
r 0.007135636 _7_ MAC  --- 0 ARP 28 [0 1000000 ffff0608 0] ------- [REQUEST 1/1 0/0]
r 0.007135636 _3_ MAC  --- 0 ARP 28 [0 1000000 ffff0608 0] ------- [REQUEST 1/1 0/0]
r 0.007135636 _7_ MAC  --- 0 ARP 28 [0 5000000 ffff0608 0] ------- [REQUEST 5/5 0/0]
r 0.007135636 _3_ MAC  --- 0 ARP 28 [0 5000000 ffff0608 0] ------- [REQUEST 5/5 0/0]
r 0.007135636 _5_ MAC  --- 0 ARP 28 [0 3000000 ffff0608 0] ------- [REQUEST 3/3 0/0]
r 0.007135636 _1_ MAC  --- 0 ARP 28 [0 3000000 ffff0608 0] ------- [REQUEST 3/3 0/0]
r 0.007135636 _7_ MAC  --- 0 ARP 28 [0 8000000 ffff0608 0] ------- [REQUEST 8/8 0/0]
r 0.007135636 _1_ MAC  --- 0 ARP 28 [0 8000000 ffff0608 0] ------- [REQUEST 8/8 0/0]
r 0.007135636 _7_ MAC  --- 0 ARP 28 [0 6000000 ffff0608 0] ------- [REQUEST 6/6 0/0]
r 0.007135636 _5_ MAC  --- 0 ARP 28 [0 6000000 ffff0608 0] ------- [REQUEST 6/6 0/0]
r 0.007135636 _1_ MAC  --- 0 ARP 28 [0 2000000 ffff0608 0] ------- [REQUEST 2/2 0/0]
r 0.007135636 _3_ MAC  --- 0 ARP 28 [0 2000000 ffff0608 0] ------- [REQUEST 2/2 0/0]
r 0.007135636 _3_ MAC  --- 0 ARP 28 [0 4000000 ffff0608 0] ------- [REQUEST 4/4 0/0]
r 0.007135636 _5_ MAC  --- 0 ARP 28 [0 4000000 ffff0608 0] ------- [REQUEST 4/4 0/0]
r 0.007135774 _0_ MAC  --- 0 ARP 28 [0 8000000 ffff0608 0] ------- [REQUEST 8/8 0/0]
r 0.007135774 _0_ MAC  --- 0 ARP 28 [0 6000000 ffff0608 0] ------- [REQUEST 6/6 0/0]
r 0.007135774 _0_ MAC  --- 0 ARP 28 [0 2000000 ffff0608 0] ------- [REQUEST 2/2 0/0]
r 0.007135774 _0_ MAC  --- 0 ARP 28 [0 4000000 ffff0608 0] ------- [REQUEST 4/4 0/0]
r 0.007135831 _3_ MAC  --- 0 ARP 28 [0 7000000 ffff0608 0] ------- [REQUEST 7/7 0/0]
r 0.007135831 _5_ MAC  --- 0 ARP 28 [0 1000000 ffff0608 0] ------- [REQUEST 1/1 0/0]
r 0.007135831 _1_ MAC  --- 0 ARP 28 [0 5000000 ffff0608 0] ------- [REQUEST 5/5 0/0]
r 0.007135831 _7_ MAC  --- 0 ARP 28 [0 3000000 ffff0608 0] ------- [REQUEST 3/3 0/0]
r 0.007135910 _2_ MAC  --- 0 ARP 28 [0 7000000 ffff0608 0] ------- [REQUEST 7/7 0/0]
r 0.007135910 _4_ MAC  --- 0 ARP 28 [0 7000000 ffff0608 0] ------- [REQUEST 7/7 0/0]
r 0.007135910 _6_ MAC  --- 0 ARP 28 [0 1000000 ffff0608 0] ------- [REQUEST 1/1 0/0]
r 0.007135910 _4_ MAC  --- 0 ARP 28 [0 1000000 ffff0608 0] ------- [REQUEST 1/1 0/0]
r 0.007135910 _8_ MAC  --- 0 ARP 28 [0 5000000 ffff0608 0] ------- [REQUEST 5/5 0/0]
r 0.007135910 _2_ MAC  --- 0 ARP 28 [0 5000000 ffff0608 0] ------- [REQUEST 5/5 0/0]
r 0.007135910 _8_ MAC  --- 0 ARP 28 [0 3000000 ffff0608 0] ------- [REQUEST 3/3 0/0]
r 0.007135910 _6_ MAC  --- 0 ARP 28 [0 3000000 ffff0608 0] ------- [REQUEST 3/3 0/0]
r 0.007135969 _6_ MAC  --- 0 ARP 28 [0 8000000 ffff0608 0] ------- [REQUEST 8/8 0/0]
r 0.007135969 _2_ MAC  --- 0 ARP 28 [0 8000000 ffff0608 0] ------- [REQUEST 8/8 0/0]
r 0.007135969 _8_ MAC  --- 0 ARP 28 [0 6000000 ffff0608 0] ------- [REQUEST 6/6 0/0]
r 0.007135969 _4_ MAC  --- 0 ARP 28 [0 6000000 ffff0608 0] ------- [REQUEST 6/6 0/0]
r 0.007135969 _8_ MAC  --- 0 ARP 28 [0 2000000 ffff0608 0] ------- [REQUEST 2/2 0/0]
r 0.007135969 _4_ MAC  --- 0 ARP 28 [0 2000000 ffff0608 0] ------- [REQUEST 2/2 0/0]
r 0.007135969 _2_ MAC  --- 0 ARP 28 [0 4000000 ffff0608 0] ------- [REQUEST 4/4 0/0]
r 0.007135969 _6_ MAC  --- 0 ARP 28 [0 4000000 ffff0608 0] ------- [REQUEST 4/4 0/0]
r 0.007136048 _5_ MAC  --- 0 ARP 28 [0 8000000 ffff0608 0] ------- [REQUEST 8/8 0/0]
r 0.007136048 _3_ MAC  --- 0 ARP 28 [0 8000000 ffff0608 0] ------- [REQUEST 8/8 0/0]
r 0.007136048 _1_ MAC  --- 0 ARP 28 [0 6000000 ffff0608 0] ------- [REQUEST 6/6 0/0]
r 0.007136048 _3_ MAC  --- 0 ARP 28 [0 6000000 ffff0608 0] ------- [REQUEST 6/6 0/0]
r 0.007136048 _5_ MAC  --- 0 ARP 28 [0 2000000 ffff0608 0] ------- [REQUEST 2/2 0/0]
r 0.007136048 _7_ MAC  --- 0 ARP 28 [0 2000000 ffff0608 0] ------- [REQUEST 2/2 0/0]
r 0.007136048 _1_ MAC  --- 0 ARP 28 [0 4000000 ffff0608 0] ------- [REQUEST 4/4 0/0]
r 0.007136048 _7_ MAC  --- 0 ARP 28 [0 4000000 ffff0608 0] ------- [REQUEST 4/4 0/0]
r 0.007136245 _4_ MAC  --- 0 ARP 28 [0 8000000 ffff0608 0] ------- [REQUEST 8/8 0/0]
r 0.007136245 _2_ MAC  --- 0 ARP 28 [0 6000000 ffff0608 0] ------- [REQUEST 6/6 0/0]
r 0.007136245 _6_ MAC  --- 0 ARP 28 [0 2000000 ffff0608 0] ------- [REQUEST 2/2 0/0]
r 0.007136245 _8_ MAC  --- 0 ARP 28 [0 4000000 ffff0608 0] ------- [REQUEST 4/4 0/0]
s 0.007488831 _0_ MAC  --- 0 ARP 28 [0 0 608 0] ------- [REPLY 0/0 7/7]
D 0.007489164 _1_ MAC  --- 0 ARP 28 [0 0 608 0] ------- [REPLY 0/0 7/7]
D 0.007489164 _5_ MAC  --- 0 ARP 28 [0 0 608 0] ------- [REPLY 0/0 7/7]
D 0.007489164 _3_ MAC  --- 0 ARP 28 [0 0 608 0] ------- [REPLY 0/0 7/7]
r 0.007489164 _7_ MAC  --- 0 ARP 28 [0 0 608 0] ------- [REPLY 0/0 7/7]
D 0.007489302 _8_ MAC  --- 0 ARP 28 [0 0 608 0] ------- [REPLY 0/0 7/7]
D 0.007489302 _6_ MAC  --- 0 ARP 28 [0 0 608 0] ------- [REPLY 0/0 7/7]
D 0.007489302 _2_ MAC  --- 0 ARP 28 [0 0 608 0] ------- [REPLY 0/0 7/7]
D 0.007489302 _4_ MAC  --- 0 ARP 28 [0 0 608 0] ------- [REPLY 0/0 7/7]
s 0.007503164 _3_ MAC  --- 0 ARP 28 [0 3000000 ffff0608 0] ------- [REQUEST 3/3 0/0]
s 0.007503302 _6_ MAC  --- 0 ARP 28 [0 6000000 ffff0608 0] ------- [REQUEST 6/6 0/0]
r 0.007503498 _2_ MAC  --- 0 ARP 28 [0 3000000 ffff0608 0] ------- [REQUEST 3/3 0/0]
r 0.007503498 _0_ MAC  --- 0 ARP 28 [0 3000000 ffff0608 0] ------- [REQUEST 3/3 0/0]
r 0.007503498 _4_ MAC  --- 0 ARP 28 [0 3000000 ffff0608 0] ------- [REQUEST 3/3 0/0]
r 0.007503636 _5_ MAC  --- 0 ARP 28 [0 3000000 ffff0608 0] ------- [REQUEST 3/3 0/0]
r 0.007503636 _1_ MAC  --- 0 ARP 28 [0 3000000 ffff0608 0] ------- [REQUEST 3/3 0/0]
r 0.007503636 _7_ MAC  --- 0 ARP 28 [0 6000000 ffff0608 0] ------- [REQUEST 6/6 0/0]
r 0.007503636 _5_ MAC  --- 0 ARP 28 [0 6000000 ffff0608 0] ------- [REQUEST 6/6 0/0]
r 0.007503774 _0_ MAC  --- 0 ARP 28 [0 6000000 ffff0608 0] ------- [REQUEST 6/6 0/0]
r 0.007503831 _7_ MAC  --- 0 ARP 28 [0 3000000 ffff0608 0] ------- [REQUEST 3/3 0/0]
r 0.007503910 _8_ MAC  --- 0 ARP 28 [0 3000000 ffff0608 0] ------- [REQUEST 3/3 0/0]
r 0.007503910 _6_ MAC  --- 0 ARP 28 [0 3000000 ffff0608 0] ------- [REQUEST 3/3 0/0]
r 0.007503969 _8_ MAC  --- 0 ARP 28 [0 6000000 ffff0608 0] ------- [REQUEST 6/6 0/0]
r 0.007503969 _4_ MAC  --- 0 ARP 28 [0 6000000 ffff0608 0] ------- [REQUEST 6/6 0/0]
r 0.007504048 _1_ MAC  --- 0 ARP 28 [0 6000000 ffff0608 0] ------- [REQUEST 6/6 0/0]
r 0.007504048 _3_ MAC  --- 0 ARP 28 [0 6000000 ffff0608 0] ------- [REQUEST 6/6 0/0]
r 0.007504245 _2_ MAC  --- 0 ARP 28 [0 6000000 ffff0608 0] ------- [REQUEST 6/6 0/0]
s 0.007856831 _0_ MAC  --- 0 ARP 28 [0 0 608 0] ------- [REPLY 0/0 1/1]
D 0.007857164 _7_ MAC  --- 0 ARP 28 [0 0 608 0] ------- [REPLY 0/0 1/1]
D 0.007857164 _5_ MAC  --- 0 ARP 28 [0 0 608 0] ------- [REPLY 0/0 1/1]
D 0.007857164 _3_ MAC  --- 0 ARP 28 [0 0 608 0] ------- [REPLY 0/0 1/1]
r 0.007857164 _1_ MAC  --- 0 ARP 28 [0 0 608 0] ------- [REPLY 0/0 1/1]
D 0.007857302 _8_ MAC  --- 0 ARP 28 [0 0 608 0] ------- [REPLY 0/0 1/1]
D 0.007857302 _6_ MAC  --- 0 ARP 28 [0 0 608 0] ------- [REPLY 0/0 1/1]
D 0.007857302 _2_ MAC  --- 0 ARP 28 [0 0 608 0] ------- [REPLY 0/0 1/1]
D 0.007857302 _4_ MAC  --- 0 ARP 28 [0 0 608 0] ------- [REPLY 0/0 1/1]
s 0.007871164 _3_ MAC  --- 0 ARP 28 [0 3000000 ffff0608 0] ------- [REQUEST 3/3 0/0]
s 0.007871302 _6_ MAC  --- 0 ARP 28 [0 6000000 ffff0608 0] ------- [REQUEST 6/6 0/0]
r 0.007871498 _2_ MAC  --- 0 ARP 28 [0 3000000 ffff0608 0] ------- [REQUEST 3/3 0/0]
r 0.007871498 _0_ MAC  --- 0 ARP 28 [0 3000000 ffff0608 0] ------- [REQUEST 3/3 0/0]
r 0.007871498 _4_ MAC  --- 0 ARP 28 [0 3000000 ffff0608 0] ------- [REQUEST 3/3 0/0]
r 0.007871636 _5_ MAC  --- 0 ARP 28 [0 3000000 ffff0608 0] ------- [REQUEST 3/3 0/0]
r 0.007871636 _1_ MAC  --- 0 ARP 28 [0 3000000 ffff0608 0] ------- [REQUEST 3/3 0/0]
r 0.007871636 _7_ MAC  --- 0 ARP 28 [0 6000000 ffff0608 0] ------- [REQUEST 6/6 0/0]
r 0.007871636 _5_ MAC  --- 0 ARP 28 [0 6000000 ffff0608 0] ------- [REQUEST 6/6 0/0]
r 0.007871774 _0_ MAC  --- 0 ARP 28 [0 6000000 ffff0608 0] ------- [REQUEST 6/6 0/0]
r 0.007871831 _7_ MAC  --- 0 ARP 28 [0 3000000 ffff0608 0] ------- [REQUEST 3/3 0/0]
r 0.007871910 _8_ MAC  --- 0 ARP 28 [0 3000000 ffff0608 0] ------- [REQUEST 3/3 0/0]
r 0.007871910 _6_ MAC  --- 0 ARP 28 [0 3000000 ffff0608 0] ------- [REQUEST 3/3 0/0]
r 0.007871969 _8_ MAC  --- 0 ARP 28 [0 6000000 ffff0608 0] ------- [REQUEST 6/6 0/0]
r 0.007871969 _4_ MAC  --- 0 ARP 28 [0 6000000 ffff0608 0] ------- [REQUEST 6/6 0/0]
r 0.007872048 _1_ MAC  --- 0 ARP 28 [0 6000000 ffff0608 0] ------- [REQUEST 6/6 0/0]
r 0.007872048 _3_ MAC  --- 0 ARP 28 [0 6000000 ffff0608 0] ------- [REQUEST 6/6 0/0]
r 0.007872245 _2_ MAC  --- 0 ARP 28 [0 6000000 ffff0608 0] ------- [REQUEST 6/6 0/0]
s 0.008224831 _0_ MAC  --- 0 ARP 28 [0 0 608 0] ------- [REPLY 0/0 5/5]
D 0.008225164 _7_ MAC  --- 0 ARP 28 [0 0 608 0] ------- [REPLY 0/0 5/5]
D 0.008225164 _1_ MAC  --- 0 ARP 28 [0 0 608 0] ------- [REPLY 0/0 5/5]
D 0.008225164 _3_ MAC  --- 0 ARP 28 [0 0 608 0] ------- [REPLY 0/0 5/5]
r 0.008225164 _5_ MAC  --- 0 ARP 28 [0 0 608 0] ------- [REPLY 0/0 5/5]
D 0.008225302 _8_ MAC  --- 0 ARP 28 [0 0 608 0] ------- [REPLY 0/0 5/5]
D 0.008225302 _6_ MAC  --- 0 ARP 28 [0 0 608 0] ------- [REPLY 0/0 5/5]
D 0.008225302 _2_ MAC  --- 0 ARP 28 [0 0 608 0] ------- [REPLY 0/0 5/5]
D 0.008225302 _4_ MAC  --- 0 ARP 28 [0 0 608 0] ------- [REPLY 0/0 5/5]
s 0.008592831 _0_ MAC  --- 0 ARP 28 [0 0 608 0] ------- [REPLY 0/0 3/3]
D 0.008593164 _7_ MAC  --- 0 ARP 28 [0 0 608 0] ------- [REPLY 0/0 3/3]
D 0.008593164 _1_ MAC  --- 0 ARP 28 [0 0 608 0] ------- [REPLY 0/0 3/3]
D 0.008593164 _5_ MAC  --- 0 ARP 28 [0 0 608 0] ------- [REPLY 0/0 3/3]
r 0.008593164 _3_ MAC  --- 0 ARP 28 [0 0 608 0] ------- [REPLY 0/0 3/3]
D 0.008593302 _8_ MAC  --- 0 ARP 28 [0 0 608 0] ------- [REPLY 0/0 3/3]
D 0.008593302 _6_ MAC  --- 0 ARP 28 [0 0 608 0] ------- [REPLY 0/0 3/3]
D 0.008593302 _2_ MAC  --- 0 ARP 28 [0 0 608 0] ------- [REPLY 0/0 3/3]
D 0.008593302 _4_ MAC  --- 0 ARP 28 [0 0 608 0] ------- [REPLY 0/0 3/3]
s 0.008861310 _7_ MAC  --- 0 UGS 108 [0 7000000 8 0] ------- [7:0 0:6 32 0] 
s 0.008861310 _1_ MAC  --- 0 UGS 108 [0 1000000 8 0] ------- [1:0 0:0 32 0] 
s 0.008960831 _0_ MAC  --- 0 ARP 28 [0 0 608 0] ------- [REPLY 0/0 8/8]
D 0.008961164 _7_ MAC  --- 0 ARP 28 [0 0 608 0] ------- [REPLY 0/0 8/8]
D 0.008961164 _1_ MAC  --- 0 ARP 28 [0 0 608 0] ------- [REPLY 0/0 8/8]
D 0.008961164 _5_ MAC  --- 0 ARP 28 [0 0 608 0] ------- [REPLY 0/0 8/8]
D 0.008961164 _3_ MAC  --- 0 ARP 28 [0 0 608 0] ------- [REPLY 0/0 8/8]
D 0.008961302 _6_ MAC  --- 0 ARP 28 [0 0 608 0] ------- [REPLY 0/0 8/8]
D 0.008961302 _2_ MAC  --- 0 ARP 28 [0 0 608 0] ------- [REPLY 0/0 8/8]
D 0.008961302 _4_ MAC  --- 0 ARP 28 [0 0 608 0] ------- [REPLY 0/0 8/8]
r 0.008961302 _8_ MAC  --- 0 ARP 28 [0 0 608 0] ------- [REPLY 0/0 8/8]
s 0.008966302 _8_ MAC  --- 0 DSAREQ 112 [0 8000000 0 0] ------- [0:0 0:0 0 0] 
r 0.008966774 _0_ MAC  --- 0 DSAREQ 112 [0 8000000 0 0] ------- [0:0 0:0 0 0] 
s 0.008966774 _0_ MAC  --- 0 DSXRVD 14 [0 0 0 0] ------- [0:0 0:0 0 0] 
s 0.008966774 _0_ MAC  --- 0 DSARSP 116 [0 0 0 0] ------- [0:0 0:0 0 0] 
r 0.008967245 _8_ MAC  --- 0 DSXRVD 14 [0 0 0 0] ------- [0:0 0:0 0 0] 
r 0.008967245 _8_ MAC  --- 0 DSARSP 116 [0 0 0 0] ------- [0:0 0:0 0 0] 
s 0.008967245 _8_ MAC  --- 0 DSAACK 14 [0 8000000 0 0] ------- [0:0 0:0 0 0] 
r 0.008967717 _0_ MAC  --- 0 DSAACK 14 [0 8000000 0 0] ------- [0:0 0:0 0 0] 
D 0.009257813 _6_ RTR  CBK 24 rtPS 578 [0 6000000 8 0] ------- [6:0 0:5 32 0] 
D 0.009257813 _6_ RTR  CBK 28 rtPS 546 [0 6000000 8 0] ------- [6:0 0:5 32 0] 
s 0.009328831 _0_ MAC  --- 0 ARP 28 [0 0 608 0] ------- [REPLY 0/0 6/6]
D 0.009329164 _7_ MAC  --- 0 ARP 28 [0 0 608 0] ------- [REPLY 0/0 6/6]
D 0.009329164 _1_ MAC  --- 0 ARP 28 [0 0 608 0] ------- [REPLY 0/0 6/6]
D 0.009329164 _5_ MAC  --- 0 ARP 28 [0 0 608 0] ------- [REPLY 0/0 6/6]
D 0.009329164 _3_ MAC  --- 0 ARP 28 [0 0 608 0] ------- [REPLY 0/0 6/6]
D 0.009329302 _8_ MAC  --- 0 ARP 28 [0 0 608 0] ------- [REPLY 0/0 6/6]
D 0.009329302 _2_ MAC  --- 0 ARP 28 [0 0 608 0] ------- [REPLY 0/0 6/6]
D 0.009329302 _4_ MAC  --- 0 ARP 28 [0 0 608 0] ------- [REPLY 0/0 6/6]
r 0.009329302 _6_ MAC  --- 0 ARP 28 [0 0 608 0] ------- [REPLY 0/0 6/6]
s 0.009696831 _0_ MAC  --- 0 ARP 28 [0 0 608 0] ------- [REPLY 0/0 2/2]
D 0.009697164 _7_ MAC  --- 0 ARP 28 [0 0 608 0] ------- [REPLY 0/0 2/2]
D 0.009697164 _1_ MAC  --- 0 ARP 28 [0 0 608 0] ------- [REPLY 0/0 2/2]
D 0.009697164 _5_ MAC  --- 0 ARP 28 [0 0 608 0] ------- [REPLY 0/0 2/2]
D 0.009697164 _3_ MAC  --- 0 ARP 28 [0 0 608 0] ------- [REPLY 0/0 2/2]
D 0.009697302 _8_ MAC  --- 0 ARP 28 [0 0 608 0] ------- [REPLY 0/0 2/2]
D 0.009697302 _6_ MAC  --- 0 ARP 28 [0 0 608 0] ------- [REPLY 0/0 2/2]
D 0.009697302 _4_ MAC  --- 0 ARP 28 [0 0 608 0] ------- [REPLY 0/0 2/2]
r 0.009697302 _2_ MAC  --- 0 ARP 28 [0 0 608 0] ------- [REPLY 0/0 2/2]
s 0.009702302 _2_ MAC  --- 0 DSAREQ 112 [0 2000000 0 0] ------- [0:0 0:0 0 0] 
r 0.009702774 _0_ MAC  --- 0 DSAREQ 112 [0 2000000 0 0] ------- [0:0 0:0 0 0] 
s 0.009702774 _0_ MAC  --- 0 DSXRVD 14 [0 0 0 0] ------- [0:0 0:0 0 0] 
s 0.009702774 _0_ MAC  --- 0 DSARSP 116 [0 0 0 0] ------- [0:0 0:0 0 0] 
r 0.009703245 _2_ MAC  --- 0 DSXRVD 14 [0 0 0 0] ------- [0:0 0:0 0 0] 
r 0.009703245 _2_ MAC  --- 0 DSARSP 116 [0 0 0 0] ------- [0:0 0:0 0 0] 
s 0.009703245 _2_ MAC  --- 0 DSAACK 14 [0 2000000 0 0] ------- [0:0 0:0 0 0] 
r 0.009703717 _0_ MAC  --- 0 DSAACK 14 [0 2000000 0 0] ------- [0:0 0:0 0 0] 
s 0.010064831 _0_ MAC  --- 0 ARP 28 [0 0 608 0] ------- [REPLY 0/0 4/4]
D 0.010065164 _7_ MAC  --- 0 ARP 28 [0 0 608 0] ------- [REPLY 0/0 4/4]
D 0.010065164 _1_ MAC  --- 0 ARP 28 [0 0 608 0] ------- [REPLY 0/0 4/4]
D 0.010065164 _5_ MAC  --- 0 ARP 28 [0 0 608 0] ------- [REPLY 0/0 4/4]
D 0.010065164 _3_ MAC  --- 0 ARP 28 [0 0 608 0] ------- [REPLY 0/0 4/4]
D 0.010065302 _8_ MAC  --- 0 ARP 28 [0 0 608 0] ------- [REPLY 0/0 4/4]
D 0.010065302 _6_ MAC  --- 0 ARP 28 [0 0 608 0] ------- [REPLY 0/0 4/4]
D 0.010065302 _2_ MAC  --- 0 ARP 28 [0 0 608 0] ------- [REPLY 0/0 4/4]
r 0.010065302 _4_ MAC  --- 0 ARP 28 [0 0 608 0] ------- [REPLY 0/0 4/4]
s 0.010070302 _4_ MAC  --- 0 DSAREQ 112 [0 4000000 0 0] ------- [0:0 0:0 0 0] 
r 0.010070774 _0_ MAC  --- 0 DSAREQ 112 [0 4000000 0 0] ------- [0:0 0:0 0 0] 
s 0.010070774 _0_ MAC  --- 0 DSXRVD 14 [0 0 0 0] ------- [0:0 0:0 0 0] 
s 0.010070774 _0_ MAC  --- 0 DSARSP 116 [0 0 0 0] ------- [0:0 0:0 0 0] 
r 0.010071245 _4_ MAC  --- 0 DSXRVD 14 [0 0 0 0] ------- [0:0 0:0 0 0] 
r 0.010071245 _4_ MAC  --- 0 DSARSP 116 [0 0 0 0] ------- [0:0 0:0 0 0] 
s 0.010071245 _4_ MAC  --- 0 DSAACK 14 [0 4000000 0 0] ------- [0:0 0:0 0 0] 
r 0.010071717 _0_ MAC  --- 0 DSAACK 14 [0 4000000 0 0] ------- [0:0 0:0 0 0] 
s 0.010100800 _0_ MAC  --- 0 DLMAP 24 [0 0 ffff0000 0] ------- [0:0 0:0 0 0] 
s 0.010100800 _0_ MAC  --- 0 ULMAP 36 [0 0 ffff0000 0] ------- [0:0 0:0 0 0] 
r 0.010101133 _7_ MAC  --- 0 DLMAP 24 [0 0 ffff0000 0] ------- [0:0 0:0 0 0] 
r 0.010101133 _1_ MAC  --- 0 DLMAP 24 [0 0 ffff0000 0] ------- [0:0 0:0 0 0] 
r 0.010101133 _5_ MAC  --- 0 DLMAP 24 [0 0 ffff0000 0] ------- [0:0 0:0 0 0] 
r 0.010101133 _3_ MAC  --- 0 DLMAP 24 [0 0 ffff0000 0] ------- [0:0 0:0 0 0] 
r 0.010101133 _7_ MAC  --- 0 ULMAP 36 [0 0 ffff0000 0] ------- [0:0 0:0 0 0] 
r 0.010101133 _1_ MAC  --- 0 ULMAP 36 [0 0 ffff0000 0] ------- [0:0 0:0 0 0] 
r 0.010101133 _5_ MAC  --- 0 ULMAP 36 [0 0 ffff0000 0] ------- [0:0 0:0 0 0] 
r 0.010101133 _3_ MAC  --- 0 ULMAP 36 [0 0 ffff0000 0] ------- [0:0 0:0 0 0] 
r 0.010101271 _8_ MAC  --- 0 DLMAP 24 [0 0 ffff0000 0] ------- [0:0 0:0 0 0] 
r 0.010101271 _6_ MAC  --- 0 DLMAP 24 [0 0 ffff0000 0] ------- [0:0 0:0 0 0] 
r 0.010101271 _2_ MAC  --- 0 DLMAP 24 [0 0 ffff0000 0] ------- [0:0 0:0 0 0] 
r 0.010101271 _4_ MAC  --- 0 DLMAP 24 [0 0 ffff0000 0] ------- [0:0 0:0 0 0] 
r 0.010101271 _8_ MAC  --- 0 ULMAP 36 [0 0 ffff0000 0] ------- [0:0 0:0 0 0] 
r 0.010101271 _6_ MAC  --- 0 ULMAP 36 [0 0 ffff0000 0] ------- [0:0 0:0 0 0] 
r 0.010101271 _2_ MAC  --- 0 ULMAP 36 [0 0 ffff0000 0] ------- [0:0 0:0 0 0] 
r 0.010101271 _4_ MAC  --- 0 ULMAP 36 [0 0 ffff0000 0] ------- [0:0 0:0 0 0] 
s 0.010432831 _0_ MAC  --- 0 ARP 28 [0 0 608 0] ------- [REPLY 0/0 3/3]
D 0.010433164 _7_ MAC  --- 0 ARP 28 [0 0 608 0] ------- [REPLY 0/0 3/3]
D 0.010433164 _1_ MAC  --- 0 ARP 28 [0 0 608 0] ------- [REPLY 0/0 3/3]
D 0.010433164 _5_ MAC  --- 0 ARP 28 [0 0 608 0] ------- [REPLY 0/0 3/3]
r 0.010433164 _3_ MAC  --- 0 ARP 28 [0 0 608 0] ------- [REPLY 0/0 3/3]
D 0.010433302 _8_ MAC  --- 0 ARP 28 [0 0 608 0] ------- [REPLY 0/0 3/3]
D 0.010433302 _6_ MAC  --- 0 ARP 28 [0 0 608 0] ------- [REPLY 0/0 3/3]
D 0.010433302 _2_ MAC  --- 0 ARP 28 [0 0 608 0] ------- [REPLY 0/0 3/3]
D 0.010433302 _4_ MAC  --- 0 ARP 28 [0 0 608 0] ------- [REPLY 0/0 3/3]
s 0.010800831 _0_ MAC  --- 0 ARP 28 [0 0 608 0] ------- [REPLY 0/0 6/6]
D 0.010801164 _7_ MAC  --- 0 ARP 28 [0 0 608 0] ------- [REPLY 0/0 6/6]
D 0.010801164 _1_ MAC  --- 0 ARP 28 [0 0 608 0] ------- [REPLY 0/0 6/6]
D 0.010801164 _5_ MAC  --- 0 ARP 28 [0 0 608 0] ------- [REPLY 0/0 6/6]
D 0.010801164 _3_ MAC  --- 0 ARP 28 [0 0 608 0] ------- [REPLY 0/0 6/6]
D 0.010801302 _8_ MAC  --- 0 ARP 28 [0 0 608 0] ------- [REPLY 0/0 6/6]
D 0.010801302 _2_ MAC  --- 0 ARP 28 [0 0 608 0] ------- [REPLY 0/0 6/6]
D 0.010801302 _4_ MAC  --- 0 ARP 28 [0 0 608 0] ------- [REPLY 0/0 6/6]
r 0.010801302 _6_ MAC  --- 0 ARP 28 [0 0 608 0] ------- [REPLY 0/0 6/6]
s 0.011168831 _0_ MAC  --- 0 ARP 28 [0 0 608 0] ------- [REPLY 0/0 3/3]
D 0.011169164 _7_ MAC  --- 0 ARP 28 [0 0 608 0] ------- [REPLY 0/0 3/3]
D 0.011169164 _1_ MAC  --- 0 ARP 28 [0 0 608 0] ------- [REPLY 0/0 3/3]
D 0.011169164 _5_ MAC  --- 0 ARP 28 [0 0 608 0] ------- [REPLY 0/0 3/3]
r 0.011169164 _3_ MAC  --- 0 ARP 28 [0 0 608 0] ------- [REPLY 0/0 3/3]
D 0.011169302 _8_ MAC  --- 0 ARP 28 [0 0 608 0] ------- [REPLY 0/0 3/3]
D 0.011169302 _6_ MAC  --- 0 ARP 28 [0 0 608 0] ------- [REPLY 0/0 3/3]
D 0.011169302 _2_ MAC  --- 0 ARP 28 [0 0 608 0] ------- [REPLY 0/0 3/3]
D 0.011169302 _4_ MAC  --- 0 ARP 28 [0 0 608 0] ------- [REPLY 0/0 3/3]
s 0.011536831 _0_ MAC  --- 0 ARP 28 [0 0 608 0] ------- [REPLY 0/0 6/6]
D 0.011537164 _7_ MAC  --- 0 ARP 28 [0 0 608 0] ------- [REPLY 0/0 6/6]
D 0.011537164 _1_ MAC  --- 0 ARP 28 [0 0 608 0] ------- [REPLY 0/0 6/6]
D 0.011537164 _5_ MAC  --- 0 ARP 28 [0 0 608 0] ------- [REPLY 0/0 6/6]
D 0.011537164 _3_ MAC  --- 0 ARP 28 [0 0 608 0] ------- [REPLY 0/0 6/6]
D 0.011537302 _8_ MAC  --- 0 ARP 28 [0 0 608 0] ------- [REPLY 0/0 6/6]
D 0.011537302 _2_ MAC  --- 0 ARP 28 [0 0 608 0] ------- [REPLY 0/0 6/6]
D 0.011537302 _4_ MAC  --- 0 ARP 28 [0 0 608 0] ------- [REPLY 0/0 6/6]
r 0.011537302 _6_ MAC  --- 0 ARP 28 [0 0 608 0] ------- [REPLY 0/0 6/6]
s 0.013861290 _4_ MAC  --- 0 UGS 108 [0 4000000 8 0] ------- [4:0 0:3 32 0] 
r 0.013861761 _0_ MAC  --- 0 UGS 108 [0 4000000 8 0] ------- [4:0 0:3 32 0] 
s 0.014071875 _3_ MAC  --- 0 DSAREQ 112 [0 3000000 0 0] ------- [0:0 0:0 0 0] 
r 0.014072208 _0_ MAC  --- 0 DSAREQ 112 [0 3000000 0 0] ------- [0:0 0:0 0 0] 
s 0.014072208 _0_ MAC  --- 0 DSXRVD 14 [0 0 0 0] ------- [0:0 0:0 0 0] 
s 0.014072208 _0_ MAC  --- 0 DSARSP 116 [0 0 0 0] ------- [0:0 0:0 0 0] 
r 0.014072542 _3_ MAC  --- 0 DSXRVD 14 [0 0 0 0] ------- [0:0 0:0 0 0] 
r 0.014072542 _3_ MAC  --- 0 DSARSP 116 [0 0 0 0] ------- [0:0 0:0 0 0] 
s 0.014072542 _3_ MAC  --- 0 DSAACK 14 [0 3000000 0 0] ------- [0:0 0:0 0 0] 
r 0.014072875 _0_ MAC  --- 0 DSAACK 14 [0 3000000 0 0] ------- [0:0 0:0 0 0] 
D 0.014265625 _0_ RTR  IFQ 11 rtPS 220 [0 0 0 0] ------- [0:11 4:1 32 0] 
s 0.015100780 _0_ MAC  --- 0 DLMAP 24 [0 0 ffff0000 0] ------- [0:0 0:0 0 0] 
s 0.015100780 _0_ MAC  --- 0 ULMAP 36 [0 0 ffff0000 0] ------- [0:0 0:0 0 0] 
r 0.015101113 _7_ MAC  --- 0 DLMAP 24 [0 0 ffff0000 0] ------- [0:0 0:0 0 0] 
r 0.015101113 _1_ MAC  --- 0 DLMAP 24 [0 0 ffff0000 0] ------- [0:0 0:0 0 0] 
r 0.015101113 _5_ MAC  --- 0 DLMAP 24 [0 0 ffff0000 0] ------- [0:0 0:0 0 0] 
r 0.015101113 _3_ MAC  --- 0 DLMAP 24 [0 0 ffff0000 0] ------- [0:0 0:0 0 0] 
r 0.015101113 _7_ MAC  --- 0 ULMAP 36 [0 0 ffff0000 0] ------- [0:0 0:0 0 0] 
r 0.015101113 _1_ MAC  --- 0 ULMAP 36 [0 0 ffff0000 0] ------- [0:0 0:0 0 0] 
r 0.015101113 _5_ MAC  --- 0 ULMAP 36 [0 0 ffff0000 0] ------- [0:0 0:0 0 0] 
r 0.015101113 _3_ MAC  --- 0 ULMAP 36 [0 0 ffff0000 0] ------- [0:0 0:0 0 0] 
r 0.015101251 _8_ MAC  --- 0 DLMAP 24 [0 0 ffff0000 0] ------- [0:0 0:0 0 0] 
r 0.015101251 _6_ MAC  --- 0 DLMAP 24 [0 0 ffff0000 0] ------- [0:0 0:0 0 0] 