s -t 0.000100840 -Hs 0 -Hd -2 -Ni 0 -Nx 1000.00 -Ny 19000.00 -Nz 0.00 -Ne -1.000000 -Nl MAC -Nw --- -Ma 0 -Md 0 -Ms ffff0000 -Mt 0 -Is 0.0 -Id 0.0 -It DLMAP -Il 24 -If 0 -Ii 0 -Iv 0 
s -t 0.000100840 -Hs 0 -Hd -2 -Ni 0 -Nx 1000.00 -Ny 19000.00 -Nz 0.00 -Ne -1.000000 -Nl MAC -Nw --- -Ma 0 -Md 0 -Ms ffff0000 -Mt 0 -Is 0.0 -Id 0.0 -It ULMAP -Il 28 -If 0 -Ii 0 -Iv 0 
s -t 0.000100840 -Hs 0 -Hd -2 -Ni 0 -Nx 1000.00 -Ny 19000.00 -Nz 0.00 -Ne -1.000000 -Nl MAC -Nw --- -Ma 0 -Md 0 -Ms ffff0000 -Mt 0 -Is 0.0 -Id 0.0 -It DCD -Il 116 -If 0 -Ii 0 -Iv 0 
s -t 0.000100840 -Hs 0 -Hd -2 -Ni 0 -Nx 1000.00 -Ny 19000.00 -Nz 0.00 -Ne -1.000000 -Nl MAC -Nw --- -Ma 0 -Md 0 -Ms ffff0000 -Mt 0 -Is 0.0 -Id 0.0 -It UCD -Il 180 -If 0 -Ii 0 -Iv 0 
r -t 0.000150840 -Hs 1 -Hd -2 -Ni 1 -Nx 1000.00 -Ny 4000.00 -Nz 0.00 -Ne -1.000000 -Nl MAC -Nw --- -Ma 0 -Md 0 -Ms ffff0000 -Mt 0 -Is 0.0 -Id 0.0 -It DLMAP -Il 24 -If 0 -Ii 0 -Iv 0 
r -t 0.000150840 -Hs 1 -Hd -2 -Ni 1 -Nx 1000.00 -Ny 4000.00 -Nz 0.00 -Ne -1.000000 -Nl MAC -Nw --- -Ma 0 -Md 0 -Ms ffff0000 -Mt 0 -Is 0.0 -Id 0.0 -It ULMAP -Il 28 -If 0 -Ii 0 -Iv 0 
r -t 0.000150840 -Hs 1 -Hd -2 -Ni 1 -Nx 1000.00 -Ny 4000.00 -Nz 0.00 -Ne -1.000000 -Nl MAC -Nw --- -Ma 0 -Md 0 -Ms ffff0000 -Mt 0 -Is 0.0 -Id 0.0 -It DCD -Il 116 -If 0 -Ii 0 -Iv 0 
r -t 0.000150840 -Hs 1 -Hd -2 -Ni 1 -Nx 1000.00 -Ny 4000.00 -Nz 0.00 -Ne -1.000000 -Nl MAC -Nw --- -Ma 0 -Md 0 -Ms ffff0000 -Mt 0 -Is 0.0 -Id 0.0 -It UCD -Il 180 -If 0 -Ii 0 -Iv 0 
s -t 0.000846201 -Hs 0 -Hd -1 -Ni 0 -Nx 1000.00 -Ny 19000.00 -Nz 0.00 -Ne -1.000000 -Nl MAC -Nw --- -Ma 0 -Md 0 -Ms ffff0008 -Mt 0 -Is 0.255 -Id -1.255 -It message -Il 32 -If 0 -Ii 0 -Iv 32 
r -t 0.000896201 -Hs 1 -Hd -1 -Ni 1 -Nx 1000.00 -Ny 4000.00 -Nz 0.00 -Ne -1.000000 -Nl MAC -Nw --- -Ma 0 -Md 0 -Ms ffff0008 -Mt 0 -Is 0.255 -Id -1.255 -It message -Il 32 -If 0 -Ii 0 -Iv 32 
s -t 0.003861330 -Hs 1 -Hd -2 -Ni 1 -Nx 1000.00 -Ny 4000.00 -Nz 0.00 -Ne -1.000000 -Nl MAC -Nw --- -Ma 0 -Md 1000000 -Ms 0 -Mt 0 -Is 0.0 -Id 0.0 -It RNGREQ -Il 20 -If 0 -Ii 0 -Iv 0 
r -t 0.003911330 -Hs 0 -Hd -2 -Ni 0 -Nx 1000.00 -Ny 19000.00 -Nz 0.00 -Ne -1.000000 -Nl MAC -Nw --- -Ma 0 -Md 1000000 -Ms 0 -Mt 0 -Is 0.0 -Id 0.0 -It RNGREQ -Il 20 -If 0 -Ii 0 -Iv 0 
s -t 0.003911330 -Hs 0 -Hd -2 -Ni 0 -Nx 1000.00 -Ny 19000.00 -Nz 0.00 -Ne -1.000000 -Nl MAC -Nw --- -Ma 0 -Md 0 -Ms 0 -Mt 0 -Is 0.0 -Id 0.0 -It RNGRSP -Il 48 -If 0 -Ii 0 -Iv 0 
r -t 0.003961330 -Hs 1 -Hd -2 -Ni 1 -Nx 1000.00 -Ny 4000.00 -Nz 0.00 -Ne -1.000000 -Nl MAC -Nw --- -Ma 0 -Md 0 -Ms 0 -Mt 0 -Is 0.0 -Id 0.0 -It RNGRSP -Il 48 -If 0 -Ii 0 -Iv 0 
s -t 0.005100820 -Hs 0 -Hd -2 -Ni 0 -Nx 1000.00 -Ny 19000.00 -Nz 0.00 -Ne -1.000000 -Nl MAC -Nw --- -Ma 0 -Md 0 -Ms ffff0000 -Mt 0 -Is 0.0 -Id 0.0 -It DLMAP -Il 24 -If 0 -Ii 0 -Iv 0 
s -t 0.005100820 -Hs 0 -Hd -2 -Ni 0 -Nx 1000.00 -Ny 19000.00 -Nz 0.00 -Ne -1.000000 -Nl MAC -Nw --- -Ma 0 -Md 0 -Ms ffff0000 -Mt 0 -Is 0.0 -Id 0.0 -It ULMAP -Il 36 -If 0 -Ii 0 -Iv 0 
r -t 0.005150820 -Hs 1 -Hd -2 -Ni 1 -Nx 1000.00 -Ny 4000.00 -Nz 0.00 -Ne -1.000000 -Nl MAC -Nw --- -Ma 0 -Md 0 -Ms ffff0000 -Mt 0 -Is 0.0 -Id 0.0 -It DLMAP -Il 24 -If 0 -Ii 0 -Iv 0 
r -t 0.005150820 -Hs 1 -Hd -2 -Ni 1 -Nx 1000.00 -Ny 4000.00 -Nz 0.00 -Ne -1.000000 -Nl MAC -Nw --- -Ma 0 -Md 0 -Ms ffff0000 -Mt 0 -Is 0.0 -Id 0.0 -It ULMAP -Il 36 -If 0 -Ii 0 -Iv 0 
s -t 0.010100800 -Hs 0 -Hd -2 -Ni 0 -Nx 1000.00 -Ny 19000.00 -Nz 0.00 -Ne -1.000000 -Nl MAC -Nw --- -Ma 0 -Md 0 -Ms ffff0000 -Mt 0 -Is 0.0 -Id 0.0 -It DLMAP -Il 24 -If 0 -Ii 0 -Iv 0 
s -t 0.010100800 -Hs 0 -Hd -2 -Ni 0 -Nx 1000.00 -Ny 19000.00 -Nz 0.00 -Ne -1.000000 -Nl MAC -Nw --- -Ma 0 -Md 0 -Ms ffff0000 -Mt 0 -Is 0.0 -Id 0.0 -It ULMAP -Il 28 -If 0 -Ii 0 -Iv 0 
r -t 0.010150800 -Hs 1 -Hd -2 -Ni 1 -Nx 1000.00 -Ny 4000.00 -Nz 0.00 -Ne -1.000000 -Nl MAC -Nw --- -Ma 0 -Md 0 -Ms ffff0000 -Mt 0 -Is 0.0 -Id 0.0 -It DLMAP -Il 24 -If 0 -Ii 0 -Iv 0 
r -t 0.010150800 -Hs 1 -Hd -2 -Ni 1 -Nx 1000.00 -Ny 4000.00 -Nz 0.00 -Ne -1.000000 -Nl MAC -Nw --- -Ma 0 -Md 0 -Ms ffff0000 -Mt 0 -Is 0.0 -Id 0.0 -It ULMAP -Il 28 -If 0 -Ii 0 -Iv 0 
s -t 0.015100780 -Hs 0 -Hd -2 -Ni 0 -Nx 1000.00 -Ny 19000.00 -Nz 0.00 -Ne -1.000000 -Nl MAC -Nw --- -Ma 0 -Md 0 -Ms ffff0000 -Mt 0 -Is 0.0 -Id 0.0 -It DLMAP -Il 24 -If 0 -Ii 0 -Iv 0 
s -t 0.015100780 -Hs 0 -Hd -2 -Ni 0 -Nx 1000.00 -Ny 19000.00 -Nz 0.00 -Ne -1.000000 -Nl MAC -Nw --- -Ma 0 -Md 0 -Ms ffff0000 -Mt 0 -Is 0.0 -Id 0.0 -It ULMAP -Il 28 -If 0 -Ii 0 -Iv 0 
r -t 0.015150780 -Hs 1 -Hd -2 -Ni 1 -Nx 1000.00 -Ny 4000.00 -Nz 0.00 -Ne -1.000000 -Nl MAC -Nw --- -Ma 0 -Md 0 -Ms ffff0000 -Mt 0 -Is 0.0 -Id 0.0 -It DLMAP -Il 24 -If 0 -Ii 0 -Iv 0 
r -t 0.015150780 -Hs 1 -Hd -2 -Ni 1 -Nx 1000.00 -Ny 4000.00 -Nz 0.00 -Ne -1.000000 -Nl MAC -Nw --- -Ma 0 -Md 0 -Ms ffff0000 -Mt 0 -Is 0.0 -Id 0.0 -It ULMAP -Il 28 -If 0 -Ii 0 -Iv 0 
s -t 0.020100760 -Hs 0 -Hd -2 -Ni 0 -Nx 1000.00 -Ny 19000.00 -Nz 0.00 -Ne -1.000000 -Nl MAC -Nw --- -Ma 0 -Md 0 -Ms ffff0000 -Mt 0 -Is 0.0 -Id 0.0 -It DLMAP -Il 24 -If 0 -Ii 0 -Iv 0 
s -t 0.020100760 -Hs 0 -Hd -2 -Ni 0 -Nx 1000.00 -Ny 19000.00 -Nz 0.00 -Ne -1.000000 -Nl MAC -Nw --- -Ma 0 -Md 0 -Ms ffff0000 -Mt 0 -Is 0.0 -Id 0.0 -It ULMAP -Il 28 -If 0 -Ii 0 -Iv 0 
r -t 0.020150760 -Hs 1 -Hd -2 -Ni 1 -Nx 1000.00 -Ny 4000.00 -Nz 0.00 -Ne -1.000000 -Nl MAC -Nw --- -Ma 0 -Md 0 -Ms ffff0000 -Mt 0 -Is 0.0 -Id 0.0 -It DLMAP -Il 24 -If 0 -Ii 0 -Iv 0 
r -t 0.020150760 -Hs 1 -Hd -2 -Ni 1 -Nx 1000.00 -Ny 4000.00 -Nz 0.00 -Ne -1.000000 -Nl MAC -Nw --- -Ma 0 -Md 0 -Ms ffff0000 -Mt 0 -Is 0.0 -Id 0.0 -It ULMAP -Il 28 -If 0 -Ii 0 -Iv 0 
s -t 0.025100740 -Hs 0 -Hd -2 -Ni 0 -Nx 1000.00 -Ny 19000.00 -Nz 0.00 -Ne -1.000000 -Nl MAC -Nw --- -Ma 0 -Md 0 -Ms ffff0000 -Mt 0 -Is 0.0 -Id 0.0 -It DLMAP -Il 24 -If 0 -Ii 0 -Iv 0 
s -t 0.025100740 -Hs 0 -Hd -2 -Ni 0 -Nx 1000.00 -Ny 19000.00 -Nz 0.00 -Ne -1.000000 -Nl MAC -Nw --- -Ma 0 -Md 0 -Ms ffff0000 -Mt 0 -Is 0.0 -Id 0.0 -It ULMAP -Il 28 -If 0 -Ii 0 -Iv 0 
r -t 0.025150740 -Hs 1 -Hd -2 -Ni 1 -Nx 1000.00 -Ny 4000.00 -Nz 0.00 -Ne -1.000000 -Nl MAC -Nw --- -Ma 0 -Md 0 -Ms ffff0000 -Mt 0 -Is 0.0 -Id 0.0 -It DLMAP -Il 24 -If 0 -Ii 0 -Iv 0 
r -t 0.025150740 -Hs 1 -Hd -2 -Ni 1 -Nx 1000.00 -Ny 4000.00 -Nz 0.00 -Ne -1.000000 -Nl MAC -Nw --- -Ma 0 -Md 0 -Ms ffff0000 -Mt 0 -Is 0.0 -Id 0.0 -It ULMAP -Il 28 -If 0 -Ii 0 -Iv 0 
s -t 0.030100720 -Hs 0 -Hd -2 -Ni 0 -Nx 1000.00 -Ny 19000.00 -Nz 0.00 -Ne -1.000000 -Nl MAC -Nw --- -Ma 0 -Md 0 -Ms ffff0000 -Mt 0 -Is 0.0 -Id 0.0 -It DLMAP -Il 24 -If 0 -Ii 0 -Iv 0 
s -t 0.030100720 -Hs 0 -Hd -2 -Ni 0 -Nx 1000.00 -Ny 19000.00 -Nz 0.00 -Ne -1.000000 -Nl MAC -Nw --- -Ma 0 -Md 0 -Ms ffff0000 -Mt 0 -Is 0.0 -Id 0.0 -It ULMAP -Il 28 -If 0 -Ii 0 -Iv 0 
r -t 0.030150720 -Hs 1 -Hd -2 -Ni 1 -Nx 1000.00 -Ny 4000.00 -Nz 0.00 -Ne -1.000000 -Nl MAC -Nw --- -Ma 0 -Md 0 -Ms ffff0000 -Mt 0 -Is 0.0 -Id 0.0 -It DLMAP -Il 24 -If 0 -Ii 0 -Iv 0 
r -t 0.030150720 -Hs 1 -Hd -2 -Ni 1 -Nx 1000.00 -Ny 4000.00 -Nz 0.00 -Ne -1.000000 -Nl MAC -Nw --- -Ma 0 -Md 0 -Ms ffff0000 -Mt 0 -Is 0.0 -Id 0.0 -It ULMAP -Il 28 -If 0 -Ii 0 -Iv 0 
s -t 0.035100700 -Hs 0 -Hd -2 -Ni 0 -Nx 1000.00 -Ny 19000.00 -Nz 0.00 -Ne -1.000000 -Nl MAC -Nw --- -Ma 0 -Md 0 -Ms ffff0000 -Mt 0 -Is 0.0 -Id 0.0 -It DLMAP -Il 24 -If 0 -Ii 0 -Iv 0 
s -t 0.035100700 -Hs 0 -Hd -2 -Ni 0 -Nx 1000.00 -Ny 19000.00 -Nz 0.00 -Ne -1.000000 -Nl MAC -Nw --- -Ma 0 -Md 0 -Ms ffff0000 -Mt 0 -Is 0.0 -Id 0.0 -It ULMAP -Il 28 -If 0 -Ii 0 -Iv 0 
r -t 0.035150700 -Hs 1 -Hd -2 -Ni 1 -Nx 1000.00 -Ny 4000.00 -Nz 0.00 -Ne -1.000000 -Nl MAC -Nw --- -Ma 0 -Md 0 -Ms ffff0000 -Mt 0 -Is 0.0 -Id 0.0 -It DLMAP -Il 24 -If 0 -Ii 0 -Iv 0 
r -t 0.035150700 -Hs 1 -Hd -2 -Ni 1 -Nx 1000.00 -Ny 4000.00 -Nz 0.00 -Ne -1.000000 -Nl MAC -Nw --- -Ma 0 -Md 0 -Ms ffff0000 -Mt 0 -Is 0.0 -Id 0.0 -It ULMAP -Il 28 -If 0 -Ii 0 -Iv 0 
s -t 0.040100680 -Hs 0 -Hd -2 -Ni 0 -Nx 1000.00 -Ny 19000.00 -Nz 0.00 -Ne -1.000000 -Nl MAC -Nw --- -Ma 0 -Md 0 -Ms ffff0000 -Mt 0 -Is 0.0 -Id 0.0 -It DLMAP -Il 24 -If 0 -Ii 0 -Iv 0 
s -t 0.040100680 -Hs 0 -Hd -2 -Ni 0 -Nx 1000.00 -Ny 19000.00 -Nz 0.00 -Ne -1.000000 -Nl MAC -Nw --- -Ma 0 -Md 0 -Ms ffff0000 -Mt 0 -Is 0.0 -Id 0.0 -It ULMAP -Il 28 -If 0 -Ii 0 -Iv 0 
r -t 0.040150680 -Hs 1 -Hd -2 -Ni 1 -Nx 1000.00 -Ny 4000.00 -Nz 0.00 -Ne -1.000000 -Nl MAC -Nw --- -Ma 0 -Md 0 -Ms ffff0000 -Mt 0 -Is 0.0 -Id 0.0 -It DLMAP -Il 24 -If 0 -Ii 0 -Iv 0 
r -t 0.040150680 -Hs 1 -Hd -2 -Ni 1 -Nx 1000.00 -Ny 4000.00 -Nz 0.00 -Ne -1.000000 -Nl MAC -Nw --- -Ma 0 -Md 0 -Ms ffff0000 -Mt 0 -Is 0.0 -Id 0.0 -It ULMAP -Il 28 -If 0 -Ii 0 -Iv 0 
s -t 0.045100660 -Hs 0 -Hd -2 -Ni 0 -Nx 1000.00 -Ny 19000.00 -Nz 0.00 -Ne -1.000000 -Nl MAC -Nw --- -Ma 0 -Md 0 -Ms ffff0000 -Mt 0 -Is 0.0 -Id 0.0 -It DLMAP -Il 24 -If 0 -Ii 0 -Iv 0 
s -t 0.045100660 -Hs 0 -Hd -2 -Ni 0 -Nx 1000.00 -Ny 19000.00 -Nz 0.00 -Ne -1.000000 -Nl MAC -Nw --- -Ma 0 -Md 0 -Ms ffff0000 -Mt 0 -Is 0.0 -Id 0.0 -It ULMAP -Il 28 -If 0 -Ii 0 -Iv 0 
r -t 0.045150660 -Hs 1 -Hd -2 -Ni 1 -Nx 1000.00 -Ny 4000.00 -Nz 0.00 -Ne -1.000000 -Nl MAC -Nw --- -Ma 0 -Md 0 -Ms ffff0000 -Mt 0 -Is 0.0 -Id 0.0 -It DLMAP -Il 24 -If 0 -Ii 0 -Iv 0 
r -t 0.045150660 -Hs 1 -Hd -2 -Ni 1 -Nx 1000.00 -Ny 4000.00 -Nz 0.00 -Ne -1.000000 -Nl MAC -Nw --- -Ma 0 -Md 0 -Ms ffff0000 -Mt 0 -Is 0.0 -Id 0.0 -It ULMAP -Il 28 -If 0 -Ii 0 -Iv 0 
s -t 0.050100640 -Hs 0 -Hd -2 -Ni 0 -Nx 1000.00 -Ny 19000.00 -Nz 0.00 -Ne -1.000000 -Nl MAC -Nw --- -Ma 0 -Md 0 -Ms ffff0000 -Mt 0 -Is 0.0 -Id 0.0 -It DLMAP -Il 24 -If 0 -Ii 0 -Iv 0 
s -t 0.050100640 -Hs 0 -Hd -2 -Ni 0 -Nx 1000.00 -Ny 19000.00 -Nz 0.00 -Ne -1.000000 -Nl MAC -Nw --- -Ma 0 -Md 0 -Ms ffff0000 -Mt 0 -Is 0.0 -Id 0.0 -It ULMAP -Il 28 -If 0 -Ii 0 -Iv 0 
r -t 0.050150640 -Hs 1 -Hd -2 -Ni 1 -Nx 1000.00 -Ny 4000.00 -Nz 0.00 -Ne -1.000000 -Nl MAC -Nw --- -Ma 0 -Md 0 -Ms ffff0000 -Mt 0 -Is 0.0 -Id 0.0 -It DLMAP -Il 24 -If 0 -Ii 0 -Iv 0 
r -t 0.050150640 -Hs 1 -Hd -2 -Ni 1 -Nx 1000.00 -Ny 4000.00 -Nz 0.00 -Ne -1.000000 -Nl MAC -Nw --- -Ma 0 -Md 0 -Ms ffff0000 -Mt 0 -Is 0.0 -Id 0.0 -It ULMAP -Il 28 -If 0 -Ii 0 -Iv 0 
s -t 0.055100620 -Hs 0 -Hd -2 -Ni 0 -Nx 1000.00 -Ny 19000.00 -Nz 0.00 -Ne -1.000000 -Nl MAC -Nw --- -Ma 0 -Md 0 -Ms ffff0000 -Mt 0 -Is 0.0 -Id 0.0 -It DLMAP -Il 24 -If 0 -Ii 0 -Iv 0 
s -t 0.055100620 -Hs 0 -Hd -2 -Ni 0 -Nx 1000.00 -Ny 19000.00 -Nz 0.00 -Ne -1.000000 -Nl MAC -Nw --- -Ma 0 -Md 0 -Ms ffff0000 -Mt 0 -Is 0.0 -Id 0.0 -It ULMAP -Il 28 -If 0 -Ii 0 -Iv 0 
r -t 0.055150620 -Hs 1 -Hd -2 -Ni 1 -Nx 1000.00 -Ny 4000.00 -Nz 0.00 -Ne -1.000000 -Nl MAC -Nw --- -Ma 0 -Md 0 -Ms ffff0000 -Mt 0 -Is 0.0 -Id 0.0 -It DLMAP -Il 24 -If 0 -Ii 0 -Iv 0 
r -t 0.055150620 -Hs 1 -Hd -2 -Ni 1 -Nx 1000.00 -Ny 4000.00 -Nz 0.00 -Ne -1.000000 -Nl MAC -Nw --- -Ma 0 -Md 0 -Ms ffff0000 -Mt 0 -Is 0.0 -Id 0.0 -It ULMAP -Il 28 -If 0 -Ii 0 -Iv 0 
s -t 0.060100600 -Hs 0 -Hd -2 -Ni 0 -Nx 1000.00 -Ny 19000.00 -Nz 0.00 -Ne -1.000000 -Nl MAC -Nw --- -Ma 0 -Md 0 -Ms ffff0000 -Mt 0 -Is 0.0 -Id 0.0 -It DLMAP -Il 24 -If 0 -Ii 0 -Iv 0 
s -t 0.060100600 -Hs 0 -Hd -2 -Ni 0 -Nx 1000.00 -Ny 19000.00 -Nz 0.00 -Ne -1.000000 -Nl MAC -Nw --- -Ma 0 -Md 0 -Ms ffff0000 -Mt 0 -Is 0.0 -Id 0.0 -It ULMAP -Il 28 -If 0 -Ii 0 -Iv 0 
r -t 0.060150600 -Hs 1 -Hd -2 -Ni 1 -Nx 1000.00 -Ny 4000.00 -Nz 0.00 -Ne -1.000000 -Nl MAC -Nw --- -Ma 0 -Md 0 -Ms ffff0000 -Mt 0 -Is 0.0 -Id 0.0 -It DLMAP -Il 24 -If 0 -Ii 0 -Iv 0 
r -t 0.060150600 -Hs 1 -Hd -2 -Ni 1 -Nx 1000.00 -Ny 4000.00 -Nz 0.00 -Ne -1.000000 -Nl MAC -Nw --- -Ma 0 -Md 0 -Ms ffff0000 -Mt 0 -Is 0.0 -Id 0.0 -It ULMAP -Il 28 -If 0 -Ii 0 -Iv 0 
s -t 0.065100580 -Hs 0 -Hd -2 -Ni 0 -Nx 1000.00 -Ny 19000.00 -Nz 0.00 -Ne -1.000000 -Nl MAC -Nw --- -Ma 0 -Md 0 -Ms ffff0000 -Mt 0 -Is 0.0 -Id 0.0 -It DLMAP -Il 24 -If 0 -Ii 0 -Iv 0 
s -t 0.065100580 -Hs 0 -Hd -2 -Ni 0 -Nx 1000.00 -Ny 19000.00 -Nz 0.00 -Ne -1.000000 -Nl MAC -Nw --- -Ma 0 -Md 0 -Ms ffff0000 -Mt 0 -Is 0.0 -Id 0.0 -It ULMAP -Il 28 -If 0 -Ii 0 -Iv 0 
r -t 0.065150580 -Hs 1 -Hd -2 -Ni 1 -Nx 1000.00 -Ny 4000.00 -Nz 0.00 -Ne -1.000000 -Nl MAC -Nw --- -Ma 0 -Md 0 -Ms ffff0000 -Mt 0 -Is 0.0 -Id 0.0 -It DLMAP -Il 24 -If 0 -Ii 0 -Iv 0 
r -t 0.065150580 -Hs 1 -Hd -2 -Ni 1 -Nx 1000.00 -Ny 4000.00 -Nz 0.00 -Ne -1.000000 -Nl MAC -Nw --- -Ma 0 -Md 0 -Ms ffff0000 -Mt 0 -Is 0.0 -Id 0.0 -It ULMAP -Il 28 -If 0 -Ii 0 -Iv 0 
s -t 0.070100560 -Hs 0 -Hd -2 -Ni 0 -Nx 1000.00 -Ny 19000.00 -Nz 0.00 -Ne -1.000000 -Nl MAC -Nw --- -Ma 0 -Md 0 -Ms ffff0000 -Mt 0 -Is 0.0 -Id 0.0 -It DLMAP -Il 24 -If 0 -Ii 0 -Iv 0 
s -t 0.070100560 -Hs 0 -Hd -2 -Ni 0 -Nx 1000.00 -Ny 19000.00 -Nz 0.00 -Ne -1.000000 -Nl MAC -Nw --- -Ma 0 -Md 0 -Ms ffff0000 -Mt 0 -Is 0.0 -Id 0.0 -It ULMAP -Il 28 -If 0 -Ii 0 -Iv 0 
r -t 0.070150560 -Hs 1 -Hd -2 -Ni 1 -Nx 1000.00 -Ny 4000.00 -Nz 0.00 -Ne -1.000000 -Nl MAC -Nw --- -Ma 0 -Md 0 -Ms ffff0000 -Mt 0 -Is 0.0 -Id 0.0 -It DLMAP -Il 24 -If 0 -Ii 0 -Iv 0 
r -t 0.070150560 -Hs 1 -Hd -2 -Ni 1 -Nx 1000.00 -Ny 4000.00 -Nz 0.00 -Ne -1.000000 -Nl MAC -Nw --- -Ma 0 -Md 0 -Ms ffff0000 -Mt 0 -Is 0.0 -Id 0.0 -It ULMAP -Il 28 -If 0 -Ii 0 -Iv 0 
s -t 0.075100540 -Hs 0 -Hd -2 -Ni 0 -Nx 1000.00 -Ny 19000.00 -Nz 0.00 -Ne -1.000000 -Nl MAC -Nw --- -Ma 0 -Md 0 -Ms ffff0000 -Mt 0 -Is 0.0 -Id 0.0 -It DLMAP -Il 24 -If 0 -Ii 0 -Iv 0 
s -t 0.075100540 -Hs 0 -Hd -2 -Ni 0 -Nx 1000.00 -Ny 19000.00 -Nz 0.00 -Ne -1.000000 -Nl MAC -Nw --- -Ma 0 -Md 0 -Ms ffff0000 -Mt 0 -Is 0.0 -Id 0.0 -It ULMAP -Il 28 -If 0 -Ii 0 -Iv 0 
r -t 0.075150540 -Hs 1 -Hd -2 -Ni 1 -Nx 1000.00 -Ny 4000.00 -Nz 0.00 -Ne -1.000000 -Nl MAC -Nw --- -Ma 0 -Md 0 -Ms ffff0000 -Mt 0 -Is 0.0 -Id 0.0 -It DLMAP -Il 24 -If 0 -Ii 0 -Iv 0 
r -t 0.075150540 -Hs 1 -Hd -2 -Ni 1 -Nx 1000.00 -Ny 4000.00 -Nz 0.00 -Ne -1.000000 -Nl MAC -Nw --- -Ma 0 -Md 0 -Ms ffff0000 -Mt 0 -Is 0.0 -Id 0.0 -It ULMAP -Il 28 -If 0 -Ii 0 -Iv 0 
s -t 0.080100520 -Hs 0 -Hd -2 -Ni 0 -Nx 1000.00 -Ny 19000.00 -Nz 0.00 -Ne -1.000000 -Nl MAC -Nw --- -Ma 0 -Md 0 -Ms ffff0000 -Mt 0 -Is 0.0 -Id 0.0 -It DLMAP -Il 24 -If 0 -Ii 0 -Iv 0 
s -t 0.080100520 -Hs 0 -Hd -2 -Ni 0 -Nx 1000.00 -Ny 19000.00 -Nz 0.00 -Ne -1.000000 -Nl MAC -Nw --- -Ma 0 -Md 0 -Ms ffff0000 -Mt 0 -Is 0.0 -Id 0.0 -It ULMAP -Il 28 -If 0 -Ii 0 -Iv 0 
r -t 0.080150520 -Hs 1 -Hd -2 -Ni 1 -Nx 1000.00 -Ny 4000.00 -Nz 0.00 -Ne -1.000000 -Nl MAC -Nw --- -Ma 0 -Md 0 -Ms ffff0000 -Mt 0 -Is 0.0 -Id 0.0 -It DLMAP -Il 24 -If 0 -Ii 0 -Iv 0 
r -t 0.080150520 -Hs 1 -Hd -2 -Ni 1 -Nx 1000.00 -Ny 4000.00 -Nz 0.00 -Ne -1.000000 -Nl MAC -Nw --- -Ma 0 -Md 0 -Ms ffff0000 -Mt 0 -Is 0.0 -Id 0.0 -It ULMAP -Il 28 -If 0 -Ii 0 -Iv 0 
s -t 0.085100500 -Hs 0 -Hd -2 -Ni 0 -Nx 1000.00 -Ny 19000.00 -Nz 0.00 -Ne -1.000000 -Nl MAC -Nw --- -Ma 0 -Md 0 -Ms ffff0000 -Mt 0 -Is 0.0 -Id 0.0 -It DLMAP -Il 24 -If 0 -Ii 0 -Iv 0 
s -t 0.085100500 -Hs 0 -Hd -2 -Ni 0 -Nx 1000.00 -Ny 19000.00 -Nz 0.00 -Ne -1.000000 -Nl MAC -Nw --- -Ma 0 -Md 0 -Ms ffff0000 -Mt 0 -Is 0.0 -Id 0.0 -It ULMAP -Il 28 -If 0 -Ii 0 -Iv 0 
r -t 0.085150500 -Hs 1 -Hd -2 -Ni 1 -Nx 1000.00 -Ny 4000.00 -Nz 0.00 -Ne -1.000000 -Nl MAC -Nw --- -Ma 0 -Md 0 -Ms ffff0000 -Mt 0 -Is 0.0 -Id 0.0 -It DLMAP -Il 24 -If 0 -Ii 0 -Iv 0 
r -t 0.085150500 -Hs 1 -Hd -2 -Ni 1 -Nx 1000.00 -Ny 4000.00 -Nz 0.00 -Ne -1.000000 -Nl MAC -Nw --- -Ma 0 -Md 0 -Ms ffff0000 -Mt 0 -Is 0.0 -Id 0.0 -It ULMAP -Il 28 -If 0 -Ii 0 -Iv 0 
s -t 0.090100480 -Hs 0 -Hd -2 -Ni 0 -Nx 1000.00 -Ny 19000.00 -Nz 0.00 -Ne -1.000000 -Nl MAC -Nw --- -Ma 0 -Md 0 -Ms ffff0000 -Mt 0 -Is 0.0 -Id 0.0 -It DLMAP -Il 24 -If 0 -Ii 0 -Iv 0 
s -t 0.090100480 -Hs 0 -Hd -2 -Ni 0 -Nx 1000.00 -Ny 19000.00 -Nz 0.00 -Ne -1.000000 -Nl MAC -Nw --- -Ma 0 -Md 0 -Ms ffff0000 -Mt 0 -Is 0.0 -Id 0.0 -It ULMAP -Il 28 -If 0 -Ii 0 -Iv 0 
r -t 0.090150480 -Hs 1 -Hd -2 -Ni 1 -Nx 1000.00 -Ny 4000.00 -Nz 0.00 -Ne -1.000000 -Nl MAC -Nw --- -Ma 0 -Md 0 -Ms ffff0000 -Mt 0 -Is 0.0 -Id 0.0 -It DLMAP -Il 24 -If 0 -Ii 0 -Iv 0 
r -t 0.090150480 -Hs 1 -Hd -2 -Ni 1 -Nx 1000.00 -Ny 4000.00 -Nz 0.00 -Ne -1.000000 -Nl MAC -Nw --- -Ma 0 -Md 0 -Ms ffff0000 -Mt 0 -Is 0.0 -Id 0.0 -It ULMAP -Il 28 -If 0 -Ii 0 -Iv 0 
s -t 0.095100460 -Hs 0 -Hd -2 -Ni 0 -Nx 1000.00 -Ny 19000.00 -Nz 0.00 -Ne -1.000000 -Nl MAC -Nw --- -Ma 0 -Md 0 -Ms ffff0000 -Mt 0 -Is 0.0 -Id 0.0 -It DLMAP -Il 24 -If 0 -Ii 0 -Iv 0 
s -t 0.095100460 -Hs 0 -Hd -2 -Ni 0 -Nx 1000.00 -Ny 19000.00 -Nz 0.00 -Ne -1.000000 -Nl MAC -Nw --- -Ma 0 -Md 0 -Ms ffff0000 -Mt 0 -Is 0.0 -Id 0.0 -It ULMAP -Il 28 -If 0 -Ii 0 -Iv 0 
r -t 0.095150460 -Hs 1 -Hd -2 -Ni 1 -Nx 1000.00 -Ny 4000.00 -Nz 0.00 -Ne -1.000000 -Nl MAC -Nw --- -Ma 0 -Md 0 -Ms ffff0000 -Mt 0 -Is 0.0 -Id 0.0 -It DLMAP -Il 24 -If 0 -Ii 0 -Iv 0 
r -t 0.095150460 -Hs 1 -Hd -2 -Ni 1 -Nx 1000.00 -Ny 4000.00 -Nz 0.00 -Ne -1.000000 -Nl MAC -Nw --- -Ma 0 -Md 0 -Ms ffff0000 -Mt 0 -Is 0.0 -Id 0.0 -It ULMAP -Il 28 -If 0 -Ii 0 -Iv 0 
s -t 0.100100440 -Hs 0 -Hd -2 -Ni 0 -Nx 1000.00 -Ny 19000.00 -Nz 0.00 -Ne -1.000000 -Nl MAC -Nw --- -Ma 0 -Md 0 -Ms ffff0000 -Mt 0 -Is 0.0 -Id 0.0 -It DLMAP -Il 24 -If 0 -Ii 0 -Iv 0 
s -t 0.100100440 -Hs 0 -Hd -2 -Ni 0 -Nx 1000.00 -Ny 19000.00 -Nz 0.00 -Ne -1.000000 -Nl MAC -Nw --- -Ma 0 -Md 0 -Ms ffff0000 -Mt 0 -Is 0.0 -Id 0.0 -It ULMAP -Il 28 -If 0 -Ii 0 -Iv 0 
r -t 0.100150440 -Hs 1 -Hd -2 -Ni 1 -Nx 1000.00 -Ny 4000.00 -Nz 0.00 -Ne -1.000000 -Nl MAC -Nw --- -Ma 0 -Md 0 -Ms ffff0000 -Mt 0 -Is 0.0 -Id 0.0 -It DLMAP -Il 24 -If 0 -Ii 0 -Iv 0 
r -t 0.100150440 -Hs 1 -Hd -2 -Ni 1 -Nx 1000.00 -Ny 4000.00 -Nz 0.00 -Ne -1.000000 -Nl MAC -Nw --- -Ma 0 -Md 0 -Ms ffff0000 -Mt 0 -Is 0.0 -Id 0.0 -It ULMAP -Il 28 -If 0 -Ii 0 -Iv 0 
s -t 0.105100420 -Hs 0 -Hd -2 -Ni 0 -Nx 1000.00 -Ny 19000.00 -Nz 0.00 -Ne -1.000000 -Nl MAC -Nw --- -Ma 0 -Md 0 -Ms ffff0000 -Mt 0 -Is 0.0 -Id 0.0 -It DLMAP -Il 24 -If 0 -Ii 0 -Iv 0 
s -t 0.105100420 -Hs 0 -Hd -2 -Ni 0 -Nx 1000.00 -Ny 19000.00 -Nz 0.00 -Ne -1.000000 -Nl MAC -Nw --- -Ma 0 -Md 0 -Ms ffff0000 -Mt 0 -Is 0.0 -Id 0.0 -It ULMAP -Il 28 -If 0 -Ii 0 -Iv 0 
r -t 0.105150420 -Hs 1 -Hd -2 -Ni 1 -Nx 1000.00 -Ny 4000.00 -Nz 0.00 -Ne -1.000000 -Nl MAC -Nw --- -Ma 0 -Md 0 -Ms ffff0000 -Mt 0 -Is 0.0 -Id 0.0 -It DLMAP -Il 24 -If 0 -Ii 0 -Iv 0 
r -t 0.105150420 -Hs 1 -Hd -2 -Ni 1 -Nx 1000.00 -Ny 4000.00 -Nz 0.00 -Ne -1.000000 -Nl MAC -Nw --- -Ma 0 -Md 0 -Ms ffff0000 -Mt 0 -Is 0.0 -Id 0.0 -It ULMAP -Il 28 -If 0 -Ii 0 -Iv 0 
s -t 0.110100400 -Hs 0 -Hd -2 -Ni 0 -Nx 1000.00 -Ny 19000.00 -Nz 0.00 -Ne -1.000000 -Nl MAC -Nw --- -Ma 0 -Md 0 -Ms ffff0000 -Mt 0 -Is 0.0 -Id 0.0 -It DLMAP -Il 24 -If 0 -Ii 0 -Iv 0 
s -t 0.110100400 -Hs 0 -Hd -2 -Ni 0 -Nx 1000.00 -Ny 19000.00 -Nz 0.00 -Ne -1.000000 -Nl MAC -Nw --- -Ma 0 -Md 0 -Ms ffff0000 -Mt 0 -Is 0.0 -Id 0.0 -It ULMAP -Il 28 -If 0 -Ii 0 -Iv 0 
r -t 0.110150400 -Hs 1 -Hd -2 -Ni 1 -Nx 1000.00 -Ny 4000.00 -Nz 0.00 -Ne -1.000000 -Nl MAC -Nw --- -Ma 0 -Md 0 -Ms ffff0000 -Mt 0 -Is 0.0 -Id 0.0 -It DLMAP -Il 24 -If 0 -Ii 0 -Iv 0 
r -t 0.110150400 -Hs 1 -Hd -2 -Ni 1 -Nx 1000.00 -Ny 4000.00 -Nz 0.00 -Ne -1.000000 -Nl MAC -Nw --- -Ma 0 -Md 0 -Ms ffff0000 -Mt 0 -Is 0.0 -Id 0.0 -It ULMAP -Il 28 -If 0 -Ii 0 -Iv 0 
s -t 0.115100380 -Hs 0 -Hd -2 -Ni 0 -Nx 1000.00 -Ny 19000.00 -Nz 0.00 -Ne -1.000000 -Nl MAC -Nw --- -Ma 0 -Md 0 -Ms ffff0000 -Mt 0 -Is 0.0 -Id 0.0 -It DLMAP -Il 24 -If 0 -Ii 0 -Iv 0 
s -t 0.115100380 -Hs 0 -Hd -2 -Ni 0 -Nx 1000.00 -Ny 19000.00 -Nz 0.00 -Ne -1.000000 -Nl MAC -Nw --- -Ma 0 -Md 0 -Ms ffff0000 -Mt 0 -Is 0.0 -Id 0.0 -It ULMAP -Il 28 -If 0 -Ii 0 -Iv 0 
r -t 0.115150380 -Hs 1 -Hd -2 -Ni 1 -Nx 1000.00 -Ny 4000.00 -Nz 0.00 -Ne -1.000000 -Nl MAC -Nw --- -Ma 0 -Md 0 -Ms ffff0000 -Mt 0 -Is 0.0 -Id 0.0 -It DLMAP -Il 24 -If 0 -Ii 0 -Iv 0 
r -t 0.115150380 -Hs 1 -Hd -2 -Ni 1 -Nx 1000.00 -Ny 4000.00 -Nz 0.00 -Ne -1.000000 -Nl MAC -Nw --- -Ma 0 -Md 0 -Ms ffff0000 -Mt 0 -Is 0.0 -Id 0.0 -It ULMAP -Il 28 -If 0 -Ii 0 -Iv 0 
s -t 0.120100360 -Hs 0 -Hd -2 -Ni 0 -Nx 1000.00 -Ny 19000.00 -Nz 0.00 -Ne -1.000000 -Nl MAC -Nw --- -Ma 0 -Md 0 -Ms ffff0000 -Mt 0 -Is 0.0 -Id 0.0 -It DLMAP -Il 24 -If 0 -Ii 0 -Iv 0 
s -t 0.120100360 -Hs 0 -Hd -2 -Ni 0 -Nx 1000.00 -Ny 19000.00 -Nz 0.00 -Ne -1.000000 -Nl MAC -Nw --- -Ma 0 -Md 0 -Ms ffff0000 -Mt 0 -Is 0.0 -Id 0.0 -It ULMAP -Il 28 -If 0 -Ii 0 -Iv 0 
r -t 0.120150360 -Hs 1 -Hd -2 -Ni 1 -Nx 1000.00 -Ny 4000.00 -Nz 0.00 -Ne -1.000000 -Nl MAC -Nw --- -Ma 0 -Md 0 -Ms ffff0000 -Mt 0 -Is 0.0 -Id 0.0 -It DLMAP -Il 24 -If 0 -Ii 0 -Iv 0 
r -t 0.120150360 -Hs 1 -Hd -2 -Ni 1 -Nx 1000.00 -Ny 4000.00 -Nz 0.00 -Ne -1.000000 -Nl MAC -Nw --- -Ma 0 -Md 0 -Ms ffff0000 -Mt 0 -Is 0.0 -Id 0.0 -It ULMAP -Il 28 -If 0 -Ii 0 -Iv 0 
s -t 0.125100340 -Hs 0 -Hd -2 -Ni 0 -Nx 1000.00 -Ny 19000.00 -Nz 0.00 -Ne -1.000000 -Nl MAC -Nw --- -Ma 0 -Md 0 -Ms ffff0000 -Mt 0 -Is 0.0 -Id 0.0 -It DLMAP -Il 24 -If 0 -Ii 0 -Iv 0 
s -t 0.125100340 -Hs 0 -Hd -2 -Ni 0 -Nx 1000.00 -Ny 19000.00 -Nz 0.00 -Ne -1.000000 -Nl MAC -Nw --- -Ma 0 -Md 0 -Ms ffff0000 -Mt 0 -Is 0.0 -Id 0.0 -It ULMAP -Il 28 -If 0 -Ii 0 -Iv 0 
r -t 0.125150340 -Hs 1 -Hd -2 -Ni 1 -Nx 1000.00 -Ny 4000.00 -Nz 0.00 -Ne -1.000000 -Nl MAC -Nw --- -Ma 0 -Md 0 -Ms ffff0000 -Mt 0 -Is 0.0 -Id 0.0 -It DLMAP -Il 24 -If 0 -Ii 0 -Iv 0 
r -t 0.125150340 -Hs 1 -Hd -2 -Ni 1 -Nx 1000.00 -Ny 4000.00 -Nz 0.00 -Ne -1.000000 -Nl MAC -Nw --- -Ma 0 -Md 0 -Ms ffff0000 -Mt 0 -Is 0.0 -Id 0.0 -It ULMAP -Il 28 -If 0 -Ii 0 -Iv 0 
s -t 0.130100320 -Hs 0 -Hd -2 -Ni 0 -Nx 1000.00 -Ny 19000.00 -Nz 0.00 -Ne -1.000000 -Nl MAC -Nw --- -Ma 0 -Md 0 -Ms ffff0000 -Mt 0 -Is 0.0 -Id 0.0 -It DLMAP -Il 24 -If 0 -Ii 0 -Iv 0 
s -t 0.130100320 -Hs 0 -Hd -2 -Ni 0 -Nx 1000.00 -Ny 19000.00 -Nz 0.00 -Ne -1.000000 -Nl MAC -Nw --- -Ma 0 -Md 0 -Ms ffff0000 -Mt 0 -Is 0.0 -Id 0.0 -It ULMAP -Il 28 -If 0 -Ii 0 -Iv 0 
r -t 0.130150320 -Hs 1 -Hd -2 -Ni 1 -Nx 1000.00 -Ny 4000.00 -Nz 0.00 -Ne -1.000000 -Nl MAC -Nw --- -Ma 0 -Md 0 -Ms ffff0000 -Mt 0 -Is 0.0 -Id 0.0 -It DLMAP -Il 24 -If 0 -Ii 0 -Iv 0 
r -t 0.130150320 -Hs 1 -Hd -2 -Ni 1 -Nx 1000.00 -Ny 4000.00 -Nz 0.00 -Ne -1.000000 -Nl MAC -Nw --- -Ma 0 -Md 0 -Ms ffff0000 -Mt 0 -Is 0.0 -Id 0.0 -It ULMAP -Il 28 -If 0 -Ii 0 -Iv 0 
s -t 0.135100300 -Hs 0 -Hd -2 -Ni 0 -Nx 1000.00 -Ny 19000.00 -Nz 0.00 -Ne -1.000000 -Nl MAC -Nw --- -Ma 0 -Md 0 -Ms ffff0000 -Mt 0 -Is 0.0 -Id 0.0 -It DLMAP -Il 24 -If 0 -Ii 0 -Iv 0 
s -t 0.135100300 -Hs 0 -Hd -2 -Ni 0 -Nx 1000.00 -Ny 19000.00 -Nz 0.00 -Ne -1.000000 -Nl MAC -Nw --- -Ma 0 -Md 0 -Ms ffff0000 -Mt 0 -Is 0.0 -Id 0.0 -It ULMAP -Il 28 -If 0 -Ii 0 -Iv 0 
r -t 0.135150300 -Hs 1 -Hd -2 -Ni 1 -Nx 1000.00 -Ny 4000.00 -Nz 0.00 -Ne -1.000000 -Nl MAC -Nw --- -Ma 0 -Md 0 -Ms ffff0000 -Mt 0 -Is 0.0 -Id 0.0 -It DLMAP -Il 24 -If 0 -Ii 0 -Iv 0 
r -t 0.135150300 -Hs 1 -Hd -2 -Ni 1 -Nx 1000.00 -Ny 4000.00 -Nz 0.00 -Ne -1.000000 -Nl MAC -Nw --- -Ma 0 -Md 0 -Ms ffff0000 -Mt 0 -Is 0.0 -Id 0.0 -It ULMAP -Il 28 -If 0 -Ii 0 -Iv 0 
s -t 0.140100280 -Hs 0 -Hd -2 -Ni 0 -Nx 1000.00 -Ny 19000.00 -Nz 0.00 -Ne -1.000000 -Nl MAC -Nw --- -Ma 0 -Md 0 -Ms ffff0000 -Mt 0 -Is 0.0 -Id 0.0 -It DLMAP -Il 24 -If 0 -Ii 0 -Iv 0 
s -t 0.140100280 -Hs 0 -Hd -2 -Ni 0 -Nx 1000.00 -Ny 19000.00 -Nz 0.00 -Ne -1.000000 -Nl MAC -Nw --- -Ma 0 -Md 0 -Ms ffff0000 -Mt 0 -Is 0.0 -Id 0.0 -It ULMAP -Il 28 -If 0 -Ii 0 -Iv 0 
r -t 0.140150280 -Hs 1 -Hd -2 -Ni 1 -Nx 1000.00 -Ny 4000.00 -Nz 0.00 -Ne -1.000000 -Nl MAC -Nw --- -Ma 0 -Md 0 -Ms ffff0000 -Mt 0 -Is 0.0 -Id 0.0 -It DLMAP -Il 24 -If 0 -Ii 0 -Iv 0 
r -t 0.140150280 -Hs 1 -Hd -2 -Ni 1 -Nx 1000.00 -Ny 4000.00 -Nz 0.00 -Ne -1.000000 -Nl MAC -Nw --- -Ma 0 -Md 0 -Ms ffff0000 -Mt 0 -Is 0.0 -Id 0.0 -It ULMAP -Il 28 -If 0 -Ii 0 -Iv 0 
s -t 0.145100260 -Hs 0 -Hd -2 -Ni 0 -Nx 1000.00 -Ny 19000.00 -Nz 0.00 -Ne -1.000000 -Nl MAC -Nw --- -Ma 0 -Md 0 -Ms ffff0000 -Mt 0 -Is 0.0 -Id 0.0 -It DLMAP -Il 24 -If 0 -Ii 0 -Iv 0 
s -t 0.145100260 -Hs 0 -Hd -2 -Ni 0 -Nx 1000.00 -Ny 19000.00 -Nz 0.00 -Ne -1.000000 -Nl MAC -Nw --- -Ma 0 -Md 0 -Ms ffff0000 -Mt 0 -Is 0.0 -Id 0.0 -It ULMAP -Il 28 -If 0 -Ii 0 -Iv 0 
r -t 0.145150260 -Hs 1 -Hd -2 -Ni 1 -Nx 1000.00 -Ny 4000.00 -Nz 0.00 -Ne -1.000000 -Nl MAC -Nw --- -Ma 0 -Md 0 -Ms ffff0000 -Mt 0 -Is 0.0 -Id 0.0 -It DLMAP -Il 24 -If 0 -Ii 0 -Iv 0 
r -t 0.145150260 -Hs 1 -Hd -2 -Ni 1 -Nx 1000.00 -Ny 4000.00 -Nz 0.00 -Ne -1.000000 -Nl MAC -Nw --- -Ma 0 -Md 0 -Ms ffff0000 -Mt 0 -Is 0.0 -Id 0.0 -It ULMAP -Il 28 -If 0 -Ii 0 -Iv 0 
s -t 0.150100240 -Hs 0 -Hd -2 -Ni 0 -Nx 1000.00 -Ny 19000.00 -Nz 0.00 -Ne -1.000000 -Nl MAC -Nw --- -Ma 0 -Md 0 -Ms ffff0000 -Mt 0 -Is 0.0 -Id 0.0 -It DLMAP -Il 24 -If 0 -Ii 0 -Iv 0 
s -t 0.150100240 -Hs 0 -Hd -2 -Ni 0 -Nx 1000.00 -Ny 19000.00 -Nz 0.00 -Ne -1.000000 -Nl MAC -Nw --- -Ma 0 -Md 0 -Ms ffff0000 -Mt 0 -Is 0.0 -Id 0.0 -It ULMAP -Il 28 -If 0 -Ii 0 -Iv 0 
r -t 0.150150240 -Hs 1 -Hd -2 -Ni 1 -Nx 1000.00 -Ny 4000.00 -Nz 0.00 -Ne -1.000000 -Nl MAC -Nw --- -Ma 0 -Md 0 -Ms ffff0000 -Mt 0 -Is 0.0 -Id 0.0 -It DLMAP -Il 24 -If 0 -Ii 0 -Iv 0 
r -t 0.150150240 -Hs 1 -Hd -2 -Ni 1 -Nx 1000.00 -Ny 4000.00 -Nz 0.00 -Ne -1.000000 -Nl MAC -Nw --- -Ma 0 -Md 0 -Ms ffff0000 -Mt 0 -Is 0.0 -Id 0.0 -It ULMAP -Il 28 -If 0 -Ii 0 -Iv 0 
s -t 0.155100220 -Hs 0 -Hd -2 -Ni 0 -Nx 1000.00 -Ny 19000.00 -Nz 0.00 -Ne -1.000000 -Nl MAC -Nw --- -Ma 0 -Md 0 -Ms ffff0000 -Mt 0 -Is 0.0 -Id 0.0 -It DLMAP -Il 24 -If 0 -Ii 0 -Iv 0 
s -t 0.155100220 -Hs 0 -Hd -2 -Ni 0 -Nx 1000.00 -Ny 19000.00 -Nz 0.00 -Ne -1.000000 -Nl MAC -Nw --- -Ma 0 -Md 0 -Ms ffff0000 -Mt 0 -Is 0.0 -Id 0.0 -It ULMAP -Il 28 -If 0 -Ii 0 -Iv 0 
r -t 0.155150220 -Hs 1 -Hd -2 -Ni 1 -Nx 1000.00 -Ny 4000.00 -Nz 0.00 -Ne -1.000000 -Nl MAC -Nw --- -Ma 0 -Md 0 -Ms ffff0000 -Mt 0 -Is 0.0 -Id 0.0 -It DLMAP -Il 24 -If 0 -Ii 0 -Iv 0 
r -t 0.155150220 -Hs 1 -Hd -2 -Ni 1 -Nx 1000.00 -Ny 4000.00 -Nz 0.00 -Ne -1.000000 -Nl MAC -Nw --- -Ma 0 -Md 0 -Ms ffff0000 -Mt 0 -Is 0.0 -Id 0.0 -It ULMAP -Il 28 -If 0 -Ii 0 -Iv 0 
s -t 0.160100200 -Hs 0 -Hd -2 -Ni 0 -Nx 1000.00 -Ny 19000.00 -Nz 0.00 -Ne -1.000000 -Nl MAC -Nw --- -Ma 0 -Md 0 -Ms ffff0000 -Mt 0 -Is 0.0 -Id 0.0 -It DLMAP -Il 24 -If 0 -Ii 0 -Iv 0 
s -t 0.160100200 -Hs 0 -Hd -2 -Ni 0 -Nx 1000.00 -Ny 19000.00 -Nz 0.00 -Ne -1.000000 -Nl MAC -Nw --- -Ma 0 -Md 0 -Ms ffff0000 -Mt 0 -Is 0.0 -Id 0.0 -It ULMAP -Il 28 -If 0 -Ii 0 -Iv 0 
r -t 0.160150200 -Hs 1 -Hd -2 -Ni 1 -Nx 1000.00 -Ny 4000.00 -Nz 0.00 -Ne -1.000000 -Nl MAC -Nw --- -Ma 0 -Md 0 -Ms ffff0000 -Mt 0 -Is 0.0 -Id 0.0 -It DLMAP -Il 24 -If 0 -Ii 0 -Iv 0 
r -t 0.160150200 -Hs 1 -Hd -2 -Ni 1 -Nx 1000.00 -Ny 4000.00 -Nz 0.00 -Ne -1.000000 -Nl MAC -Nw --- -Ma 0 -Md 0 -Ms ffff0000 -Mt 0 -Is 0.0 -Id 0.0 -It ULMAP -Il 28 -If 0 -Ii 0 -Iv 0 
s -t 0.165100180 -Hs 0 -Hd -2 -Ni 0 -Nx 1000.00 -Ny 19000.00 -Nz 0.00 -Ne -1.000000 -Nl MAC -Nw --- -Ma 0 -Md 0 -Ms ffff0000 -Mt 0 -Is 0.0 -Id 0.0 -It DLMAP -Il 24 -If 0 -Ii 0 -Iv 0 
s -t 0.165100180 -Hs 0 -Hd -2 -Ni 0 -Nx 1000.00 -Ny 19000.00 -Nz 0.00 -Ne -1.000000 -Nl MAC -Nw --- -Ma 0 -Md 0 -Ms ffff0000 -Mt 0 -Is 0.0 -Id 0.0 -It ULMAP -Il 28 -If 0 -Ii 0 -Iv 0 
r -t 0.165150180 -Hs 1 -Hd -2 -Ni 1 -Nx 1000.00 -Ny 4000.00 -Nz 0.00 -Ne -1.000000 -Nl MAC -Nw --- -Ma 0 -Md 0 -Ms ffff0000 -Mt 0 -Is 0.0 -Id 0.0 -It DLMAP -Il 24 -If 0 -Ii 0 -Iv 0 
r -t 0.165150180 -Hs 1 -Hd -2 -Ni 1 -Nx 1000.00 -Ny 4000.00 -Nz 0.00 -Ne -1.000000 -Nl MAC -Nw --- -Ma 0 -Md 0 -Ms ffff0000 -Mt 0 -Is 0.0 -Id 0.0 -It ULMAP -Il 28 -If 0 -Ii 0 -Iv 0 
s -t 0.170100160 -Hs 0 -Hd -2 -Ni 0 -Nx 1000.00 -Ny 19000.00 -Nz 0.00 -Ne -1.000000 -Nl MAC -Nw --- -Ma 0 -Md 0 -Ms ffff0000 -Mt 0 -Is 0.0 -Id 0.0 -It DLMAP -Il 24 -If 0 -Ii 0 -Iv 0 
s -t 0.170100160 -Hs 0 -Hd -2 -Ni 0 -Nx 1000.00 -Ny 19000.00 -Nz 0.00 -Ne -1.000000 -Nl MAC -Nw --- -Ma 0 -Md 0 -Ms ffff0000 -Mt 0 -Is 0.0 -Id 0.0 -It ULMAP -Il 28 -If 0 -Ii 0 -Iv 0 
r -t 0.170150160 -Hs 1 -Hd -2 -Ni 1 -Nx 1000.00 -Ny 4000.00 -Nz 0.00 -Ne -1.000000 -Nl MAC -Nw --- -Ma 0 -Md 0 -Ms ffff0000 -Mt 0 -Is 0.0 -Id 0.0 -It DLMAP -Il 24 -If 0 -Ii 0 -Iv 0 
r -t 0.170150160 -Hs 1 -Hd -2 -Ni 1 -Nx 1000.00 -Ny 4000.00 -Nz 0.00 -Ne -1.000000 -Nl MAC -Nw --- -Ma 0 -Md 0 -Ms ffff0000 -Mt 0 -Is 0.0 -Id 0.0 -It ULMAP -Il 28 -If 0 -Ii 0 -Iv 0 
s -t 0.175100140 -Hs 0 -Hd -2 -Ni 0 -Nx 1000.00 -Ny 19000.00 -Nz 0.00 -Ne -1.000000 -Nl MAC -Nw --- -Ma 0 -Md 0 -Ms ffff0000 -Mt 0 -Is 0.0 -Id 0.0 -It DLMAP -Il 24 -If 0 -Ii 0 -Iv 0 
s -t 0.175100140 -Hs 0 -Hd -2 -Ni 0 -Nx 1000.00 -Ny 19000.00 -Nz 0.00 -Ne -1.000000 -Nl MAC -Nw --- -Ma 0 -Md 0 -Ms ffff0000 -Mt 0 -Is 0.0 -Id 0.0 -It ULMAP -Il 28 -If 0 -Ii 0 -Iv 0 
r -t 0.175150140 -Hs 1 -Hd -2 -Ni 1 -Nx 1000.00 -Ny 4000.00 -Nz 0.00 -Ne -1.000000 -Nl MAC -Nw --- -Ma 0 -Md 0 -Ms ffff0000 -Mt 0 -Is 0.0 -Id 0.0 -It DLMAP -Il 24 -If 0 -Ii 0 -Iv 0 
r -t 0.175150140 -Hs 1 -Hd -2 -Ni 1 -Nx 1000.00 -Ny 4000.00 -Nz 0.00 -Ne -1.000000 -Nl MAC -Nw --- -Ma 0 -Md 0 -Ms ffff0000 -Mt 0 -Is 0.0 -Id 0.0 -It ULMAP -Il 28 -If 0 -Ii 0 -Iv 0 
s -t 0.180100120 -Hs 0 -Hd -2 -Ni 0 -Nx 1000.00 -Ny 19000.00 -Nz 0.00 -Ne -1.000000 -Nl MAC -Nw --- -Ma 0 -Md 0 -Ms ffff0000 -Mt 0 -Is 0.0 -Id 0.0 -It DLMAP -Il 24 -If 0 -Ii 0 -Iv 0 
s -t 0.180100120 -Hs 0 -Hd -2 -Ni 0 -Nx 1000.00 -Ny 19000.00 -Nz 0.00 -Ne -1.000000 -Nl MAC -Nw --- -Ma 0 -Md 0 -Ms ffff0000 -Mt 0 -Is 0.0 -Id 0.0 -It ULMAP -Il 28 -If 0 -Ii 0 -Iv 0 
r -t 0.180150120 -Hs 1 -Hd -2 -Ni 1 -Nx 1000.00 -Ny 4000.00 -Nz 0.00 -Ne -1.000000 -Nl MAC -Nw --- -Ma 0 -Md 0 -Ms ffff0000 -Mt 0 -Is 0.0 -Id 0.0 -It DLMAP -Il 24 -If 0 -Ii 0 -Iv 0 
r -t 0.180150120 -Hs 1 -Hd -2 -Ni 1 -Nx 1000.00 -Ny 4000.00 -Nz 0.00 -Ne -1.000000 -Nl MAC -Nw --- -Ma 0 -Md 0 -Ms ffff0000 -Mt 0 -Is 0.0 -Id 0.0 -It ULMAP -Il 28 -If 0 -Ii 0 -Iv 0 
s -t 0.185100100 -Hs 0 -Hd -2 -Ni 0 -Nx 1000.00 -Ny 19000.00 -Nz 0.00 -Ne -1.000000 -Nl MAC -Nw --- -Ma 0 -Md 0 -Ms ffff0000 -Mt 0 -Is 0.0 -Id 0.0 -It DLMAP -Il 24 -If 0 -Ii 0 -Iv 0 
s -t 0.185100100 -Hs 0 -Hd -2 -Ni 0 -Nx 1000.00 -Ny 19000.00 -Nz 0.00 -Ne -1.000000 -Nl MAC -Nw --- -Ma 0 -Md 0 -Ms ffff0000 -Mt 0 -Is 0.0 -Id 0.0 -It ULMAP -Il 28 -If 0 -Ii 0 -Iv 0 
r -t 0.185150100 -Hs 1 -Hd -2 -Ni 1 -Nx 1000.00 -Ny 4000.00 -Nz 0.00 -Ne -1.000000 -Nl MAC -Nw --- -Ma 0 -Md 0 -Ms ffff0000 -Mt 0 -Is 0.0 -Id 0.0 -It DLMAP -Il 24 -If 0 -Ii 0 -Iv 0 
r -t 0.185150100 -Hs 1 -Hd -2 -Ni 1 -Nx 1000.00 -Ny 4000.00 -Nz 0.00 -Ne -1.000000 -Nl MAC -Nw --- -Ma 0 -Md 0 -Ms ffff0000 -Mt 0 -Is 0.0 -Id 0.0 -It ULMAP -Il 28 -If 0 -Ii 0 -Iv 0 
s -t 0.190100080 -Hs 0 -Hd -2 -Ni 0 -Nx 1000.00 -Ny 19000.00 -Nz 0.00 -Ne -1.000000 -Nl MAC -Nw --- -Ma 0 -Md 0 -Ms ffff0000 -Mt 0 -Is 0.0 -Id 0.0 -It DLMAP -Il 24 -If 0 -Ii 0 -Iv 0 
s -t 0.190100080 -Hs 0 -Hd -2 -Ni 0 -Nx 1000.00 -Ny 19000.00 -Nz 0.00 -Ne -1.000000 -Nl MAC -Nw --- -Ma 0 -Md 0 -Ms ffff0000 -Mt 0 -Is 0.0 -Id 0.0 -It ULMAP -Il 28 -If 0 -Ii 0 -Iv 0 